                         Program Version 5.0.4 -  RELEASE  -
|  1> !B3LYP def2-SVPD OPT FREQ TightSCF PAL8
|  2>
|  3> %scf
|  4>   MaxIter 300
|  5> end
|  6>
|  7> * xyz -2 1
|  8> Hf        -0.43733        0.82114       -0.00327
|  9> C          1.85069        0.75179       -0.21043
| 10> C         -0.36713        3.11851        0.00002
| 11> C         -2.72538        0.89099        0.20388
| 12> C         -0.50743       -1.47623       -0.00656
| 13> O         -0.33267        4.24599        0.00163
| 14> O          2.97368        0.71783       -0.31146
| 15> O         -0.54180       -2.60370       -0.00817
| 16> O         -3.84828        0.92536        0.30489
| 17> C         -0.64818        0.83067       -2.29202
| 18> C         -0.22660        0.81111        2.28546
| 19> O         -0.75232        0.83529       -3.41517
| 20> O         -0.12255        0.80608        3.40866
| 21> **                         ****END OF INPUT****
 Total Charge           Charge          ....   -2
 Multiplicity           Mult            ....    1
 Number of Electrons    NEL             ....   98
FINAL SINGLE POINT ENERGY      -727.168162317640
FINAL SINGLE POINT ENERGY      -727.200871939441
FINAL SINGLE POINT ENERGY      -727.202559960655
FINAL SINGLE POINT ENERGY      -727.202588433556
FINAL SINGLE POINT ENERGY      -727.202593440099
                    ***********************HURRAY********************

CARTESIAN COORDINATES (ANGSTROEM)
---------------------------------
  Hf    -0.437424    0.821144   -0.003253
  C      1.789369    0.753712   -0.206362
  C     -0.369198    3.057327   -0.000035
  C     -2.664208    0.889091    0.199868
  C     -0.505216   -1.415051   -0.006558
  O     -0.332589    4.235425    0.001637
  O      2.962707    0.718008   -0.312531
  O     -0.541158   -2.593170   -0.008378
  O     -3.837531    0.925237    0.306045
  C     -0.641566    0.830286   -2.231242
  C     -0.233410    0.811488    2.224752
  O     -0.749141    0.835066   -3.404986
  O     -0.125936    0.806267    3.398504

 Multiplicity           Mult            ....    1
 Number of Electrons    NEL             ....   98
 Basis Dimension        Dim             ....  293

ORBITAL ENERGIES
----------------

  NO   OCC          E(Eh)            E(eV)
   0   2.0000     -18.918448      -514.7972
   1   2.0000     -18.918435      -514.7968
   2   2.0000     -18.918378      -514.7952
   3   2.0000     -18.918372      -514.7951
   4   2.0000     -18.918367      -514.7949
   5   2.0000     -18.918353      -514.7946
   6   2.0000      -9.991140      -271.8727
   7   2.0000      -9.991122      -271.8723
   8   2.0000      -9.991079      -271.8711
   9   2.0000      -9.991065      -271.8707
  10   2.0000      -9.991048      -271.8702
  11   2.0000      -9.990947      -271.8675
  12   2.0000      -2.075911       -56.4884
  13   2.0000      -0.926943       -25.2234
  14   2.0000      -0.926936       -25.2232
  15   2.0000      -0.926931       -25.2231
  16   2.0000      -0.810237       -22.0477
  17   2.0000      -0.809820       -22.0363
  18   2.0000      -0.809807       -22.0360
  19   2.0000      -0.809762       -22.0348
  20   2.0000      -0.809760       -22.0347
  21   2.0000      -0.809740       -22.0341
  22   2.0000      -0.278186        -7.5698
  23   2.0000      -0.265528        -7.2254
  24   2.0000      -0.265517        -7.2251
  25   2.0000      -0.263950        -7.1825
  26   2.0000      -0.263944        -7.1823
  27   2.0000      -0.263928        -7.1818
  28   2.0000      -0.168815        -4.5937
  29   2.0000      -0.160435        -4.3657
  30   2.0000      -0.160425        -4.3654
  31   2.0000      -0.160423        -4.3653
  32   2.0000      -0.156319        -4.2536
  33   2.0000      -0.156308        -4.2534
  34   2.0000      -0.156303        -4.2532
  35   2.0000      -0.152960        -4.1622
  36   2.0000      -0.152949        -4.1620
  37   2.0000      -0.152945        -4.1618
  38   2.0000      -0.149711        -4.0738
  39   2.0000      -0.149703        -4.0736
  40   2.0000      -0.149700        -4.0736
  41   2.0000      -0.119986        -3.2650
  42   2.0000      -0.119965        -3.2644
  43   2.0000      -0.085269        -2.3203
  44   2.0000      -0.085249        -2.3198
  45   2.0000      -0.085221        -2.3190
  46   2.0000       0.125500         3.4150
  47   2.0000       0.125525         3.4157
  48   2.0000       0.125542         3.4162
  49   0.0000       0.226446         6.1619
  50   0.0000       0.226461         6.1623
  51   0.0000       0.226461         6.1623
  52   0.0000       0.234224         6.3736
  53   0.0000       0.250083         6.8051

MULLIKEN ATOMIC CHARGES
-----------------------
   0 Hf:   -0.541886
   1 C :    0.113175
   2 C :    0.114109
   3 C :    0.113232
   4 C :    0.114108
   5 O :   -0.356242
   6 O :   -0.356877
   7 O :   -0.356236
   8 O :   -0.356843
   9 C :    0.113628
  10 C :    0.113610
  11 O :   -0.356894
  12 O :   -0.356882
Sum of atomic charges:   -2.0000000

LOEWDIN ATOMIC CHARGES
----------------------
   0 Hf:   -0.207166
   1 C :    0.004764
   2 C :    0.004867
   3 C :    0.004770
   4 C :    0.004866
   5 O :   -0.303627
   6 O :   -0.303630
   7 O :   -0.303627
   8 O :   -0.303644
   9 C :    0.004855
  10 C :    0.004857
  11 O :   -0.303642
  12 O :   -0.303643

  Mayer bond orders larger than 0.100000
B(  0-Hf,  1-C ) :   0.8061 B(  0-Hf,  2-C ) :   0.8103 B(  0-Hf,  3-C ) :   0.8064
B(  0-Hf,  4-C ) :   0.8103 B(  0-Hf,  9-C ) :   0.8071 B(  0-Hf, 10-C ) :   0.8071
B(  1-C ,  3-C ) :   0.2957 B(  1-C ,  6-O ) :   1.9660 B(  2-C ,  4-C ) :   0.2957
B(  2-C ,  5-O ) :   1.9673 B(  3-C ,  8-O ) :   1.9660 B(  4-C ,  7-O ) :   1.9673
B(  9-C , 10-C ) :   0.2955 B(  9-C , 11-O ) :   1.9663 B( 10-C , 12-O ) :   1.9663

FINAL SINGLE POINT ENERGY      -727.202595866891

DIPOLE MOMENT
-------------
                                X             Y             Z
Electronic contribution:     -0.00779       0.00026       0.00166
Nuclear contribution   :      0.00763      -0.00025      -0.00162
                        -----------------------------------------
Total Dipole Moment    :     -0.00016       0.00001       0.00004
                        -----------------------------------------
Magnitude (a.u.)       :      0.00016
Magnitude (Debye)      :      0.00042

VIBRATIONAL FREQUENCIES
-----------------------

Scaling factor for frequencies =  1.000000000  (already applied!)

   0:         0.00 cm**-1
   1:         0.00 cm**-1
   2:         0.00 cm**-1
   3:         0.00 cm**-1
   4:         0.00 cm**-1
   5:         0.00 cm**-1
   6:        -8.66 cm**-1 ***imaginary mode***
   7:        -7.88 cm**-1 ***imaginary mode***
   8:        -7.57 cm**-1 ***imaginary mode***
   9:        41.14 cm**-1
  10:        41.27 cm**-1
  11:        41.38 cm**-1
  12:        55.48 cm**-1
  13:        55.64 cm**-1
  14:        55.67 cm**-1
  15:       335.39 cm**-1
  16:       335.60 cm**-1
  17:       335.65 cm**-1
  18:       339.15 cm**-1
  19:       339.25 cm**-1
  20:       339.39 cm**-1
  21:       340.14 cm**-1
  22:       340.28 cm**-1
  23:       347.93 cm**-1
  24:       407.12 cm**-1
  25:       407.31 cm**-1
  26:       407.44 cm**-1
  27:       456.44 cm**-1
  28:       456.48 cm**-1
  29:       456.49 cm**-1
  30:       512.85 cm**-1
  31:       512.88 cm**-1
  32:       512.89 cm**-1
  33:      1832.05 cm**-1
  34:      1832.10 cm**-1
  35:      1832.13 cm**-1
  36:      1844.39 cm**-1
  37:      1844.45 cm**-1
  38:      1981.61 cm**-1

IR SPECTRUM
-----------

 Mode   freq       eps      Int      T**2         TX        TY        TZ
       cm**-1   L/(mol*cm) km/mol    a.u.
----------------------------------------------------------------------------
  9:     41.14   0.000341    1.72  0.002583  (-0.031904  0.034278 -0.019760)
 10:     41.27   0.000340    1.72  0.002573  (-0.034561 -0.011812  0.035193)
 11:     41.38   0.000341    1.72  0.002568  ( 0.019178  0.035445  0.030727)
 12:     55.48   0.000000    0.00  0.000000  (-0.000000 -0.000005  0.000004)
 13:     55.64   0.000000    0.00  0.000000  (-0.000005 -0.000006 -0.000001)
 14:     55.67   0.000000    0.00  0.000000  (-0.000001  0.000000 -0.000005)
 15:    335.39   0.000000    0.00  0.000000  (-0.000001 -0.000002 -0.000004)
 16:    335.60   0.000000    0.00  0.000000  (-0.000001 -0.000007  0.000007)
 17:    335.65   0.000000    0.00  0.000000  ( 0.000004  0.000007  0.000005)
 18:    339.15   0.001804    9.11  0.001660  ( 0.001719  0.000392  0.040699)
 19:    339.25   0.001806    9.13  0.001661  (-0.003199 -0.040630  0.000513)
 20:    339.39   0.001800    9.10  0.001655  ( 0.040520 -0.003246 -0.001600)
 21:    340.14   0.000000    0.00  0.000000  ( 0.000238  0.000119  0.000026)
 22:    340.28   0.000000    0.00  0.000000  (-0.000017  0.000176  0.000039)
 23:    347.93   0.000000    0.00  0.000000  ( 0.000022 -0.000002 -0.000010)
 24:    407.12   0.000000    0.00  0.000000  (-0.000000 -0.000001 -0.000001)
 25:    407.31   0.000000    0.00  0.000000  (-0.000000 -0.000003 -0.000004)
 26:    407.44   0.000000    0.00  0.000000  (-0.000005 -0.000024  0.000000)
 27:    456.44   0.000000    0.00  0.000000  ( 0.000148 -0.000025  0.000001)
 28:    456.48   0.000000    0.00  0.000000  (-0.000116 -0.000048 -0.000029)
 29:    456.49   0.000000    0.00  0.000000  ( 0.000042  0.000099  0.000002)
 30:    512.85   0.004802   24.27  0.002922  ( 0.000956 -0.038629  0.037798)
 31:    512.88   0.004806   24.29  0.002924  (-0.019837  0.034922  0.036212)
 32:    512.89   0.004791   24.21  0.002915  (-0.050232 -0.014514 -0.013448)
 33:   1832.05   0.838755  4238.72  0.142870  ( 0.084325  0.011260 -0.368283)
 34:   1832.10   0.839084  4240.39  0.142922  (-0.014798  0.377673  0.008159)
 35:   1832.13   0.839300  4241.48  0.142956  (-0.368225 -0.012572 -0.084902)
 36:   1844.39   0.000000    0.00  0.000000  (-0.000168 -0.000157 -0.000008)
 37:   1844.45   0.000000    0.00  0.000000  (-0.000167  0.000194  0.000047)
 38:   1981.61   0.000000    0.00  0.000000  (-0.000016  0.000001  0.000007)

--------------------------
THERMOCHEMISTRY AT 298.15K
--------------------------

Temperature         ... 298.15 K
Pressure            ... 1.00 atm
Total Mass          ... 346.55 AMU

Throughout the following assumptions are being made:
  (1) The electronic state is orbitally nondegenerate
  (2) There are no thermally accessible electronically excited states
  (3) Hindered rotations indicated by low frequency modes are not
      treated as such but are treated as vibrations and this may
      cause some error
  (4) All equations used are the standard statistical mechanics
      equations for an ideal gas
  (5) All vibrations are strictly harmonic

freq.      41.14  E(vib)   ...       0.54
freq.      41.27  E(vib)   ...       0.54
freq.      41.38  E(vib)   ...       0.54
freq.      55.48  E(vib)   ...       0.52
freq.      55.64  E(vib)   ...       0.52
freq.      55.67  E(vib)   ...       0.52
freq.     335.39  E(vib)   ...       0.24
freq.     335.60  E(vib)   ...       0.24
freq.     335.65  E(vib)   ...       0.24
freq.     339.15  E(vib)   ...       0.23
freq.     339.25  E(vib)   ...       0.23
freq.     339.39  E(vib)   ...       0.23
freq.     340.14  E(vib)   ...       0.23
freq.     340.28  E(vib)   ...       0.23
freq.     347.93  E(vib)   ...       0.23
freq.     407.12  E(vib)   ...       0.19
freq.     407.31  E(vib)   ...       0.19
freq.     407.44  E(vib)   ...       0.19
freq.     456.44  E(vib)   ...       0.16
freq.     456.48  E(vib)   ...       0.16
freq.     456.49  E(vib)   ...       0.16
freq.     512.85  E(vib)   ...       0.13
freq.     512.88  E(vib)   ...       0.13
freq.     512.89  E(vib)   ...       0.13
freq.    1832.05  E(vib)   ...       0.00
freq.    1832.10  E(vib)   ...       0.00
freq.    1832.13  E(vib)   ...       0.00
freq.    1844.39  E(vib)   ...       0.00
freq.    1844.45  E(vib)   ...       0.00
freq.    1981.61  E(vib)   ...       0.00

------------
INNER ENERGY
------------

The inner energy is: U= E(el) + E(ZPE) + E(vib) + E(rot) + E(trans)
    E(el)   - is the total energy from the electronic structure calculation
              = E(kin-el) + E(nuc-el) + E(el-el) + E(nuc-nuc)
    E(ZPE)  - the the zero temperature vibrational energy from the frequency calculation
    E(vib)  - the the finite temperature correction to E(ZPE) due to population
              of excited vibrational states
    E(rot)  - is the rotational thermal energy
    E(trans)- is the translational thermal energy

Summary of contributions to the inner energy U:
Electronic energy                ...   -727.20259587 Eh
Zero point energy                ...      0.04246509 Eh      26.65 kcal/mol
Thermal vibrational correction   ...      0.01072352 Eh       6.73 kcal/mol
Thermal rotational correction    ...      0.00141627 Eh       0.89 kcal/mol
Thermal translational correction ...      0.00141627 Eh       0.89 kcal/mol
-----------------------------------------------------------------------
Total thermal energy                   -727.14657471 Eh

Summary of corrections to the electronic energy:
(perhaps to be used in another calculation)
Total thermal correction                  0.01355606 Eh       8.51 kcal/mol
Non-thermal (ZPE) correction              0.04246509 Eh      26.65 kcal/mol
-----------------------------------------------------------------------
Total correction                          0.05602115 Eh      35.15 kcal/mol

--------
ENTHALPY
--------

The enthalpy is H = U + kB*T
                kB is Boltzmann's constant
Total free energy                 ...   -727.14657471 Eh
Thermal Enthalpy correction       ...      0.00094421 Eh       0.59 kcal/mol
-----------------------------------------------------------------------
Total Enthalpy                    ...   -727.14563050 Eh

Note: Only C1 symmetry has been detected, increase convergence thresholds
      if your molecule has a higher symmetry. Symmetry factor of 1.0 is
      used for the rotational entropy correction.

Note: Rotational entropy computed according to Herzberg
Infrared and Raman Spectra, Chapter V,1, Van Nostrand Reinhold, 1945
Point Group:  C1, Symmetry Number:   1
Rotational constants in cm-1:     0.017082     0.017077     0.017070

Vibrational entropy computed according to the QRRHO of S. Grimme
Chem.Eur.J. 2012 18 9955

-------
ENTROPY
-------

The entropy contributions are T*S = T*(S(el)+S(vib)+S(rot)+S(trans))
     S(el)   - electronic entropy
     S(vib)  - vibrational entropy
     S(rot)  - rotational entropy
     S(trans)- translational entropy
The entropies will be listed as multiplied by the temperature to get
units of energy

Electronic entropy                ...      0.00000000 Eh      0.00 kcal/mol
Vibrational entropy               ...      0.01899035 Eh     11.92 kcal/mol
Rotational entropy                ...      0.01527511 Eh      9.59 kcal/mol
Translational entropy             ...      0.02063146 Eh     12.95 kcal/mol
-----------------------------------------------------------------------
Final entropy term                ...      0.05489692 Eh     34.45 kcal/mol

In case the symmetry of your molecule has not been determined correctly
or in case you have a reason to use a different symmetry number we print
out the resulting rotational entropy values for sn=1,12 :
 --------------------------------------------------------
|  sn= 1 | S(rot)=       0.01527511 Eh      9.59 kcal/mol|
|  sn= 2 | S(rot)=       0.01462065 Eh      9.17 kcal/mol|
|  sn= 3 | S(rot)=       0.01423782 Eh      8.93 kcal/mol|
|  sn= 4 | S(rot)=       0.01396620 Eh      8.76 kcal/mol|
|  sn= 5 | S(rot)=       0.01375551 Eh      8.63 kcal/mol|
|  sn= 6 | S(rot)=       0.01358337 Eh      8.52 kcal/mol|
|  sn= 7 | S(rot)=       0.01343782 Eh      8.43 kcal/mol|
|  sn= 8 | S(rot)=       0.01331174 Eh      8.35 kcal/mol|
|  sn= 9 | S(rot)=       0.01320053 Eh      8.28 kcal/mol|
|  sn=10 | S(rot)=       0.01310105 Eh      8.22 kcal/mol|
|  sn=11 | S(rot)=       0.01301106 Eh      8.16 kcal/mol|
|  sn=12 | S(rot)=       0.01292891 Eh      8.11 kcal/mol|
 --------------------------------------------------------

-------------------
GIBBS FREE ENERGY
-------------------

The Gibbs free energy is G = H - T*S

Total enthalpy                    ...   -727.14563050 Eh
Total entropy correction          ...     -0.05489692 Eh    -34.45 kcal/mol
-----------------------------------------------------------------------
Final Gibbs free energy         ...   -727.20052743 Eh

For completeness - the Gibbs free energy minus the electronic energy
G-E(el)                           ...      0.00206844 Eh      1.30 kcal/mol

                             ****ORCA TERMINATED NORMALLY****
TOTAL RUN TIME: 0 days 0 hours 11 minutes 23 seconds 670 msec
