                         Program Version 5.0.4 -  RELEASE  -
|  1> !B3LYP def2-SVPD OPT FREQ TightSCF PAL8
|  2>
|  3> %scf
|  4>   MaxIter 300
|  5> end
|  6>
|  7> * xyz 0 1
|  8> Hf        -0.43733        0.82114       -0.00327
|  9> C          1.85069        0.75179       -0.21043
| 10> C         -0.36713        3.11851        0.00002
| 11> C         -2.72538        0.89099        0.20388
| 12> C         -0.50743       -1.47623       -0.00656
| 13> O         -0.33267        4.24599        0.00163
| 14> O          2.97368        0.71783       -0.31146
| 15> O         -0.54180       -2.60370       -0.00817
| 16> O         -3.84828        0.92536        0.30489
| 17> C         -0.64818        0.83067       -2.29202
| 18> C         -0.22660        0.81111        2.28546
| 19> O         -0.75232        0.83529       -3.41517
| 20> O         -0.12255        0.80608        3.40866
| 21> **                         ****END OF INPUT****
 Total Charge           Charge          ....    0
 Multiplicity           Mult            ....    1
 Number of Electrons    NEL             ....   96
FINAL SINGLE POINT ENERGY      -727.167645752376
FINAL SINGLE POINT ENERGY      -727.175434636629
FINAL SINGLE POINT ENERGY      -727.179361117942
FINAL SINGLE POINT ENERGY      -727.181837401502
FINAL SINGLE POINT ENERGY      -727.182563065269
FINAL SINGLE POINT ENERGY      -727.182846301793
FINAL SINGLE POINT ENERGY      -727.182907605452
FINAL SINGLE POINT ENERGY      -727.182988931469
FINAL SINGLE POINT ENERGY      -727.183070701849
FINAL SINGLE POINT ENERGY      -727.183095953994
FINAL SINGLE POINT ENERGY      -727.183115957300
FINAL SINGLE POINT ENERGY      -727.183132896926
FINAL SINGLE POINT ENERGY      -727.183143374451
FINAL SINGLE POINT ENERGY      -727.183145145040
                    ***********************HURRAY********************

CARTESIAN COORDINATES (ANGSTROEM)
---------------------------------
  Hf    -0.437616    0.821204   -0.003596
  C      1.839506    0.987013    0.028284
  C     -0.152261    3.069713   -0.258630
  C     -2.714330    0.652210   -0.036257
  C     -0.721633   -1.427285    0.252885
  O      0.023826    4.189725   -0.428464
  O      2.977599    1.111874    0.085352
  O     -0.896843   -2.547254    0.423929
  O     -3.852148    0.524545   -0.093160
  C     -0.874639    1.078092   -2.229982
  C     -0.001214    0.567362    2.223423
  O     -1.127778    1.247778   -3.335132
  O      0.252231    0.399852    3.328808

 Multiplicity           Mult            ....    1
 Number of Electrons    NEL             ....   96
 Basis Dimension        Dim             ....  293

ORBITAL ENERGIES
----------------

  NO   OCC          E(Eh)            E(eV)
   0   2.0000     -19.245596      -523.6993
   1   2.0000     -19.245549      -523.6980
   2   2.0000     -19.245501      -523.6967
   3   2.0000     -19.245447      -523.6952
   4   2.0000     -19.245244      -523.6897
   5   2.0000     -19.245224      -523.6892
   6   2.0000     -10.316375      -280.7228
   7   2.0000     -10.316320      -280.7214
   8   2.0000     -10.316305      -280.7209
   9   2.0000     -10.316242      -280.7192
  10   2.0000     -10.316012      -280.7130
  11   2.0000     -10.315979      -280.7121
  12   2.0000      -2.446540       -66.5737
  13   2.0000      -1.301442       -35.4140
  14   2.0000      -1.290659       -35.1206
  15   2.0000      -1.290613       -35.1194
  16   2.0000      -1.146578       -31.2000
  17   2.0000      -1.146208       -31.1899
  18   2.0000      -1.146081       -31.1864
  19   2.0000      -1.145960       -31.1832
  20   2.0000      -1.145760       -31.1777
  21   2.0000      -1.145608       -31.1736
  22   2.0000      -0.594074       -16.1656
  23   2.0000      -0.575395       -15.6573
  24   2.0000      -0.575233       -15.6529
  25   2.0000      -0.574894       -15.6437
  26   2.0000      -0.574769       -15.6403
  27   2.0000      -0.570185       -15.5155
  28   2.0000      -0.501837       -13.6557
  29   2.0000      -0.487043       -13.2531
  30   2.0000      -0.486997       -13.2518
  31   2.0000      -0.483332       -13.1521
  32   2.0000      -0.483283       -13.1508
  33   2.0000      -0.480633       -13.0787
  34   2.0000      -0.480121       -13.0648
  35   2.0000      -0.478388       -13.0176
  36   2.0000      -0.474823       -12.9206
  37   2.0000      -0.474735       -12.9182
  38   2.0000      -0.473396       -12.8818
  39   2.0000      -0.473367       -12.8810
  40   2.0000      -0.471419       -12.8280
  41   2.0000      -0.447991       -12.1905
  42   2.0000      -0.447899       -12.1880
  43   2.0000      -0.429237       -11.6801
  44   2.0000      -0.429011       -11.6740
  45   2.0000      -0.399653       -10.8751
  46   2.0000      -0.202213        -5.5025
  47   2.0000      -0.202125        -5.5001
  48   0.0000      -0.146850        -3.9960
  49   0.0000      -0.084159        -2.2901
  50   0.0000      -0.084120        -2.2890
  51   0.0000      -0.079542        -2.1645
  52   0.0000      -0.077977        -2.1219

MULLIKEN ATOMIC CHARGES
-----------------------
   0 Hf:    0.596045
   1 C :    0.065891
   2 C :    0.066174
   3 C :    0.065794
   4 C :    0.066071
   5 O :   -0.165627
   6 O :   -0.166348
   7 O :   -0.165612
   8 O :   -0.166510
   9 C :    0.068127
  10 C :    0.068132
  11 O :   -0.166160
  12 O :   -0.165977
Sum of atomic charges:   -0.0000000

LOEWDIN ATOMIC CHARGES
----------------------
   0 Hf:    0.244772
   1 C :    0.087220
   2 C :    0.086127
   3 C :    0.086956
   4 C :    0.086099
   5 O :   -0.127681
   6 O :   -0.127543
   7 O :   -0.127683
   8 O :   -0.127630
   9 C :    0.087030
  10 C :    0.087277
  11 O :   -0.127513
  12 O :   -0.127431

  Mayer bond orders larger than 0.100000
B(  0-Hf,  1-C ) :   0.6311 B(  0-Hf,  2-C ) :   0.6402 B(  0-Hf,  3-C ) :   0.6320
B(  0-Hf,  4-C ) :   0.6401 B(  0-Hf,  5-O ) :   0.1038 B(  0-Hf,  6-O ) :   0.1041
B(  0-Hf,  7-O ) :   0.1038 B(  0-Hf,  8-O ) :   0.1042 B(  0-Hf,  9-C ) :   0.6400
B(  0-Hf, 10-C ) :   0.6390 B(  0-Hf, 11-O ) :   0.1037 B(  0-Hf, 12-O ) :   0.1035
B(  1-C ,  3-C ) :   0.2272 B(  1-C ,  6-O ) :   2.1926 B(  2-C ,  4-C ) :   0.2270
B(  2-C ,  5-O ) :   2.2037 B(  3-C ,  8-O ) :   2.1927 B(  4-C ,  7-O ) :   2.2036
B(  9-C , 10-C ) :   0.2240 B(  9-C , 11-O ) :   2.2070 B( 10-C , 12-O ) :   2.2070

FINAL SINGLE POINT ENERGY      -727.183145529370

DIPOLE MOMENT
-------------
                                X             Y             Z
Electronic contribution:     -0.02193       0.00555      -0.02544
Nuclear contribution   :      0.02310      -0.00537       0.02620
                        -----------------------------------------
Total Dipole Moment    :      0.00117       0.00018       0.00077
                        -----------------------------------------
Magnitude (a.u.)       :      0.00141
Magnitude (Debye)      :      0.00359

VIBRATIONAL FREQUENCIES
-----------------------

Scaling factor for frequencies =  1.000000000  (already applied!)

   0:         0.00 cm**-1
   1:         0.00 cm**-1
   2:         0.00 cm**-1
   3:         0.00 cm**-1
   4:         0.00 cm**-1
   5:         0.00 cm**-1
   6:        39.24 cm**-1
   7:        41.21 cm**-1
   8:        41.62 cm**-1
   9:        63.05 cm**-1
  10:        63.60 cm**-1
  11:        64.28 cm**-1
  12:        65.14 cm**-1
  13:        65.96 cm**-1
  14:        66.44 cm**-1
  15:       284.18 cm**-1
  16:       284.61 cm**-1
  17:       292.09 cm**-1
  18:       293.40 cm**-1
  19:       296.53 cm**-1
  20:       302.45 cm**-1
  21:       302.69 cm**-1
  22:       325.04 cm**-1
  23:       327.08 cm**-1
  24:       367.35 cm**-1
  25:       376.68 cm**-1
  26:       380.77 cm**-1
  27:       381.11 cm**-1
  28:       381.75 cm**-1
  29:       382.01 cm**-1
  30:       475.99 cm**-1
  31:       491.23 cm**-1
  32:       491.54 cm**-1
  33:      2039.70 cm**-1
  34:      2040.30 cm**-1
  35:      2056.07 cm**-1
  36:      2056.20 cm**-1
  37:      2056.61 cm**-1
  38:      2168.86 cm**-1

IR SPECTRUM
-----------

 Mode   freq       eps      Int      T**2         TX        TY        TZ
       cm**-1   L/(mol*cm) km/mol    a.u.
----------------------------------------------------------------------------
  6:     39.24   0.000330    1.67  0.002625  (-0.028484  0.023930  0.035225)
  7:     41.21   0.000171    0.86  0.001292  ( 0.015684  0.032133 -0.003605)
  8:     41.62   0.000171    0.87  0.001285  ( 0.024270 -0.009536  0.024605)
  9:     63.05   0.000487    2.46  0.002410  (-0.017486 -0.039768  0.022864)
 10:     63.60   0.000469    2.37  0.002301  ( 0.037498  0.000010  0.029907)
 11:     64.28   0.000001    0.00  0.000004  ( 0.001577  0.000079  0.001165)
 12:     65.14   0.000018    0.09  0.000088  ( 0.007893  0.002953  0.004176)
 13:     65.96   0.000000    0.00  0.000000  ( 0.000519  0.000122  0.000307)
 14:     66.44   0.000000    0.00  0.000001  (-0.000420 -0.000795  0.000258)
 15:    284.18   0.000001    0.00  0.000001  (-0.000098 -0.000478  0.000730)
 16:    284.61   0.000001    0.00  0.000001  ( 0.000841  0.000156  0.000366)
 17:    292.09   0.010494   53.03  0.011212  (-0.076233  0.008028 -0.073045)
 18:    293.40   0.010082   50.95  0.010723  ( 0.054176  0.074638 -0.047086)
 19:    296.53   0.003500   17.69  0.003684  ( 0.020907 -0.052299 -0.022616)
 20:    302.45   0.000000    0.00  0.000000  (-0.000107  0.000012 -0.000179)
 21:    302.69   0.000000    0.00  0.000000  ( 0.000174 -0.000005 -0.000196)
 22:    325.04   0.000000    0.00  0.000000  ( 0.000057  0.000054 -0.000065)
 23:    327.08   0.000000    0.00  0.000000  (-0.000002  0.000018 -0.000005)
 24:    367.35   0.000000    0.00  0.000000  ( 0.000042 -0.000018  0.000049)
 25:    376.68   0.002160   10.91  0.001789  ( 0.021920 -0.024596 -0.026525)
 26:    380.77   0.000004    0.02  0.000003  (-0.001453 -0.000097 -0.001074)
 27:    381.11   0.000005    0.03  0.000004  ( 0.000828  0.001835 -0.000382)
 28:    381.75   0.000158    0.80  0.000129  ( 0.009648  0.003551  0.004805)
 29:    382.01   0.000138    0.70  0.000113  ( 0.000030 -0.008615  0.006228)
 30:    475.99   0.000007    0.03  0.000004  ( 0.001645 -0.000192  0.001263)
 31:    491.23   0.005450   27.54  0.003462  ( 0.022860  0.047648 -0.025868)
 32:    491.54   0.005534   27.97  0.003513  ( 0.045637 -0.001085  0.037805)
 33:   2039.70   0.000003    0.01  0.000000  (-0.000356  0.000180 -0.000539)
 34:   2040.30   0.000011    0.05  0.000002  (-0.000948  0.000103  0.000842)
 35:   2056.07   0.613363  3099.69  0.093094  ( 0.012779 -0.236663  0.192150)
 36:   2056.20   0.565015  2855.35  0.085751  (-0.195904 -0.137719 -0.168540)
 37:   2056.61   0.363465  1836.80  0.055151  (-0.207635  0.047683  0.098819)
 38:   2168.86   0.000000    0.00  0.000000  (-0.000184 -0.000000 -0.000147)

--------------------------
THERMOCHEMISTRY AT 298.15K
--------------------------

Temperature         ... 298.15 K
Pressure            ... 1.00 atm
Total Mass          ... 346.55 AMU

Throughout the following assumptions are being made:
  (1) The electronic state is orbitally nondegenerate
  (2) There are no thermally accessible electronically excited states
  (3) Hindered rotations indicated by low frequency modes are not
      treated as such but are treated as vibrations and this may
      cause some error
  (4) All equations used are the standard statistical mechanics
      equations for an ideal gas
  (5) All vibrations are strictly harmonic

freq.      39.24  E(vib)   ...       0.54
freq.      41.21  E(vib)   ...       0.54
freq.      41.62  E(vib)   ...       0.53
freq.      63.05  E(vib)   ...       0.51
freq.      63.60  E(vib)   ...       0.51
freq.      64.28  E(vib)   ...       0.51
freq.      65.14  E(vib)   ...       0.50
freq.      65.96  E(vib)   ...       0.50
freq.      66.44  E(vib)   ...       0.50
freq.     284.18  E(vib)   ...       0.28
freq.     284.61  E(vib)   ...       0.28
freq.     292.09  E(vib)   ...       0.27
freq.     293.40  E(vib)   ...       0.27
freq.     296.53  E(vib)   ...       0.27
freq.     302.45  E(vib)   ...       0.26
freq.     302.69  E(vib)   ...       0.26
freq.     325.04  E(vib)   ...       0.24
freq.     327.08  E(vib)   ...       0.24
freq.     367.35  E(vib)   ...       0.21
freq.     376.68  E(vib)   ...       0.21
freq.     380.77  E(vib)   ...       0.21
freq.     381.11  E(vib)   ...       0.21
freq.     381.75  E(vib)   ...       0.21
freq.     382.01  E(vib)   ...       0.21
freq.     475.99  E(vib)   ...       0.15
freq.     491.23  E(vib)   ...       0.14
freq.     491.54  E(vib)   ...       0.14
freq.    2039.70  E(vib)   ...       0.00
freq.    2040.30  E(vib)   ...       0.00
freq.    2056.07  E(vib)   ...       0.00
freq.    2056.20  E(vib)   ...       0.00
freq.    2056.61  E(vib)   ...       0.00
freq.    2168.86  E(vib)   ...       0.00

------------
INNER ENERGY
------------

The inner energy is: U= E(el) + E(ZPE) + E(vib) + E(rot) + E(trans)
    E(el)   - is the total energy from the electronic structure calculation
              = E(kin-el) + E(nuc-el) + E(el-el) + E(nuc-nuc)
    E(ZPE)  - the the zero temperature vibrational energy from the frequency calculation
    E(vib)  - the the finite temperature correction to E(ZPE) due to population
              of excited vibrational states
    E(rot)  - is the rotational thermal energy
    E(trans)- is the translational thermal energy

Summary of contributions to the inner energy U:
Electronic energy                ...   -727.18314553 Eh
Zero point energy                ...      0.04411621 Eh      27.68 kcal/mol
Thermal vibrational correction   ...      0.01385754 Eh       8.70 kcal/mol
Thermal rotational correction    ...      0.00141627 Eh       0.89 kcal/mol
Thermal translational correction ...      0.00141627 Eh       0.89 kcal/mol
-----------------------------------------------------------------------
Total thermal energy                   -727.12233924 Eh

Summary of corrections to the electronic energy:
(perhaps to be used in another calculation)
Total thermal correction                  0.01669008 Eh      10.47 kcal/mol
Non-thermal (ZPE) correction              0.04411621 Eh      27.68 kcal/mol
-----------------------------------------------------------------------
Total correction                          0.06080629 Eh      38.16 kcal/mol

--------
ENTHALPY
--------

The enthalpy is H = U + kB*T
                kB is Boltzmann's constant
Total free energy                 ...   -727.12233924 Eh
Thermal Enthalpy correction       ...      0.00094421 Eh       0.59 kcal/mol
-----------------------------------------------------------------------
Total Enthalpy                    ...   -727.12139503 Eh

Note: Only C1 symmetry has been detected, increase convergence thresholds
      if your molecule has a higher symmetry. Symmetry factor of 1.0 is
      used for the rotational entropy correction.

Note: Rotational entropy computed according to Herzberg
Infrared and Raman Spectra, Chapter V,1, Van Nostrand Reinhold, 1945
Point Group:  C1, Symmetry Number:   1
Rotational constants in cm-1:     0.018804     0.018785     0.013896

Vibrational entropy computed according to the QRRHO of S. Grimme
Chem.Eur.J. 2012 18 9955

-------
ENTROPY
-------

The entropy contributions are T*S = T*(S(el)+S(vib)+S(rot)+S(trans))
     S(el)   - electronic entropy
     S(vib)  - vibrational entropy
     S(rot)  - rotational entropy
     S(trans)- translational entropy
The entropies will be listed as multiplied by the temperature to get
units of energy

Electronic entropy                ...      0.00000000 Eh      0.00 kcal/mol
Vibrational entropy               ...      0.02525592 Eh     15.85 kcal/mol
Rotational entropy                ...      0.01528190 Eh      9.59 kcal/mol
Translational entropy             ...      0.02063146 Eh     12.95 kcal/mol
-----------------------------------------------------------------------
Final entropy term                ...      0.06116929 Eh     38.38 kcal/mol

In case the symmetry of your molecule has not been determined correctly
or in case you have a reason to use a different symmetry number we print
out the resulting rotational entropy values for sn=1,12 :
 --------------------------------------------------------
|  sn= 1 | S(rot)=       0.01528190 Eh      9.59 kcal/mol|
|  sn= 2 | S(rot)=       0.01462744 Eh      9.18 kcal/mol|
|  sn= 3 | S(rot)=       0.01424461 Eh      8.94 kcal/mol|
|  sn= 4 | S(rot)=       0.01397299 Eh      8.77 kcal/mol|
|  sn= 5 | S(rot)=       0.01376230 Eh      8.64 kcal/mol|
|  sn= 6 | S(rot)=       0.01359015 Eh      8.53 kcal/mol|
|  sn= 7 | S(rot)=       0.01344461 Eh      8.44 kcal/mol|
|  sn= 8 | S(rot)=       0.01331853 Eh      8.36 kcal/mol|
|  sn= 9 | S(rot)=       0.01320732 Eh      8.29 kcal/mol|
|  sn=10 | S(rot)=       0.01310784 Eh      8.23 kcal/mol|
|  sn=11 | S(rot)=       0.01301785 Eh      8.17 kcal/mol|
|  sn=12 | S(rot)=       0.01293570 Eh      8.12 kcal/mol|
 --------------------------------------------------------

-------------------
GIBBS FREE ENERGY
-------------------

The Gibbs free energy is G = H - T*S

Total enthalpy                    ...   -727.12139503 Eh
Total entropy correction          ...     -0.06116929 Eh    -38.38 kcal/mol
-----------------------------------------------------------------------
Final Gibbs free energy         ...   -727.18256431 Eh

For completeness - the Gibbs free energy minus the electronic energy
G-E(el)                           ...      0.00058121 Eh      0.36 kcal/mol

                             ****ORCA TERMINATED NORMALLY****
TOTAL RUN TIME: 0 days 0 hours 19 minutes 31 seconds 997 msec
