                         Program Version 5.0.4 -  RELEASE  -
|  1> !B3LYP def2-SVPD OPT FREQ TightSCF PAL8
|  2>
|  3> %scf
|  4>   MaxIter 300
|  5> end
|  6>
|  7> * xyz 1 4
|  8> Hf        -0.43733        0.82114       -0.00327
|  9> C          1.85069        0.75179       -0.21043
| 10> C         -0.36713        3.11851        0.00002
| 11> C         -2.72538        0.89099        0.20388
| 12> C         -0.50743       -1.47623       -0.00656
| 13> O         -0.33267        4.24599        0.00163
| 14> O          2.97368        0.71783       -0.31146
| 15> O         -0.54180       -2.60370       -0.00817
| 16> O         -3.84828        0.92536        0.30489
| 17> C         -0.64818        0.83067       -2.29202
| 18> C         -0.22660        0.81111        2.28546
| 19> O         -0.75232        0.83529       -3.41517
| 20> O         -0.12255        0.80608        3.40866
| 21> **                         ****END OF INPUT****
 Total Charge           Charge          ....    1
 Multiplicity           Mult            ....    4
 Number of Electrons    NEL             ....   95
FINAL SINGLE POINT ENERGY      -726.935431887650
FINAL SINGLE POINT ENERGY      -726.937005425410
FINAL SINGLE POINT ENERGY      -726.937584130024
FINAL SINGLE POINT ENERGY      -726.937592150763
                    ***********************HURRAY********************

CARTESIAN COORDINATES (ANGSTROEM)
---------------------------------
  Hf    -0.437344    0.821142   -0.003268
  C      1.890641    0.750993   -0.215336
  C     -0.365427    3.159053    0.000232
  C     -2.765318    0.891597    0.208797
  C     -0.509176   -1.516773   -0.006773
  O     -0.330381    4.291332    0.001920
  O      3.018383    0.717132   -0.317072
  O     -0.544001   -2.649059   -0.008514
  O     -3.893051    0.925767    0.310531
  C     -0.651151    0.830708   -2.332607
  C     -0.223625    0.811268    2.326076
  O     -0.754580    0.835256   -3.460693
  O     -0.120270    0.806415    3.454168

 Multiplicity           Mult            ....    4
 Number of Electrons    NEL             ....   95
 Basis Dimension        Dim             ....  293

ORBITAL ENERGIES
----------------
                 SPIN UP ORBITALS
  NO   OCC          E(Eh)            E(eV)
   0   1.0000     -19.418508      -528.4045
   1   1.0000     -19.418499      -528.4042
   2   1.0000     -19.418462      -528.4032
   3   1.0000     -19.418453      -528.4030
   4   1.0000     -19.418453      -528.4030
   5   1.0000     -19.418448      -528.4028
   6   1.0000     -10.483274      -285.2644
   7   1.0000     -10.483255      -285.2639
   8   1.0000     -10.483223      -285.2630
   9   1.0000     -10.483199      -285.2623
  10   1.0000     -10.483197      -285.2623
  11   1.0000     -10.483097      -285.2596
  12   1.0000      -2.641081       -71.8675
  13   1.0000      -1.491227       -40.5783
  14   1.0000      -1.491221       -40.5782
  15   1.0000      -1.491220       -40.5782
  16   1.0000      -1.321119       -35.9495
  17   1.0000      -1.320847       -35.9421
  18   1.0000      -1.320846       -35.9421
  19   1.0000      -1.320843       -35.9420
  20   1.0000      -1.320841       -35.9419
  21   1.0000      -1.320835       -35.9418
  22   1.0000      -0.754369       -20.5274
  23   1.0000      -0.737810       -20.0768
  24   1.0000      -0.737809       -20.0768
  25   1.0000      -0.735728       -20.0202
  26   1.0000      -0.735718       -20.0199
  27   1.0000      -0.735711       -20.0197
  28   1.0000      -0.665821       -18.1179
  29   1.0000      -0.653803       -17.7909
  30   1.0000      -0.653798       -17.7907
  31   1.0000      -0.653795       -17.7907
  32   1.0000      -0.650375       -17.6976
  33   1.0000      -0.650365       -17.6973
  34   1.0000      -0.650357       -17.6971
  35   1.0000      -0.647468       -17.6185
  36   1.0000      -0.647463       -17.6184
  37   1.0000      -0.647455       -17.6181
  38   1.0000      -0.644859       -17.5475
  39   1.0000      -0.644857       -17.5475
  40   1.0000      -0.644854       -17.5474
  41   1.0000      -0.624089       -16.9823
  42   1.0000      -0.624059       -16.9815
  43   1.0000      -0.596070       -16.2199
  44   1.0000      -0.596024       -16.2186
  45   1.0000      -0.595998       -16.2179
  46   1.0000      -0.375634       -10.2215
  47   1.0000      -0.375604       -10.2207
  48   1.0000      -0.375591       -10.2204
  49   0.0000      -0.247353        -6.7308
  50   0.0000      -0.247333        -6.7303
  51   0.0000      -0.247312        -6.7297
  52   0.0000      -0.223975        -6.0947
  53   0.0000      -0.223947        -6.0939

                 SPIN DOWN ORBITALS
  NO   OCC          E(Eh)            E(eV)
   0   1.0000     -19.415010      -528.3093
   1   1.0000     -19.415000      -528.3090
   2   1.0000     -19.414966      -528.3081
   3   1.0000     -19.414957      -528.3078
   4   1.0000     -19.414955      -528.3078
   5   1.0000     -19.414948      -528.3076
   6   1.0000     -10.482950      -285.2556
   7   1.0000     -10.482931      -285.2551
   8   1.0000     -10.482898      -285.2542
   9   1.0000     -10.482875      -285.2535
  10   1.0000     -10.482871      -285.2534
  11   1.0000     -10.482772      -285.2507
  12   1.0000      -2.618612       -71.2561
  13   1.0000      -1.459364       -39.7113
  14   1.0000      -1.459353       -39.7110
  15   1.0000      -1.459346       -39.7108
  16   1.0000      -1.315673       -35.8013
  17   1.0000      -1.315421       -35.7944
  18   1.0000      -1.315411       -35.7941
  19   1.0000      -1.315411       -35.7941
  20   1.0000      -1.315407       -35.7940
  21   1.0000      -1.315394       -35.7937
  22   1.0000      -0.744268       -20.2526
  23   1.0000      -0.731413       -19.9027
  24   1.0000      -0.731406       -19.9026
  25   1.0000      -0.729330       -19.8461
  26   1.0000      -0.729319       -19.8458
  27   1.0000      -0.729310       -19.8455
  28   1.0000      -0.654800       -17.8180
  29   1.0000      -0.642980       -17.4964
  30   1.0000      -0.642971       -17.4961
  31   1.0000      -0.642970       -17.4961
  32   1.0000      -0.640387       -17.4258
  33   1.0000      -0.640372       -17.4254
  34   1.0000      -0.640365       -17.4252
  35   1.0000      -0.637553       -17.3487
  36   1.0000      -0.637542       -17.3484
  37   1.0000      -0.637535       -17.3482
  38   1.0000      -0.634963       -17.2782
  39   1.0000      -0.634961       -17.2782
  40   1.0000      -0.634956       -17.2780
  41   1.0000      -0.616332       -16.7713
  42   1.0000      -0.616272       -16.7696
  43   1.0000      -0.587759       -15.9937
  44   1.0000      -0.587705       -15.9923
  45   1.0000      -0.587685       -15.9917
  46   0.0000      -0.303477        -8.2580
  47   0.0000      -0.303439        -8.2570
  48   0.0000      -0.303329        -8.2540
  49   0.0000      -0.228590        -6.2203
  50   0.0000      -0.228577        -6.2199

MULLIKEN ATOMIC CHARGES AND SPIN POPULATIONS
--------------------------------------------
   0 Hf:    0.530759    1.510563
   1 C :    0.180184    0.157376
   2 C :    0.180510    0.157553
   3 C :    0.180185    0.157370
   4 C :    0.180501    0.157552
   5 O :   -0.101548    0.091058
   6 O :   -0.102552    0.090726
   7 O :   -0.101544    0.091059
   8 O :   -0.102552    0.090726
   9 C :    0.180478    0.157282
  10 C :    0.180485    0.157283
  11 O :   -0.102452    0.090726
  12 O :   -0.102454    0.090726
Sum of atomic charges         :    1.0000000

LOEWDIN ATOMIC CHARGES AND SPIN POPULATIONS
-------------------------------------------
   0 Hf:    0.344849    1.360667
   1 C :    0.159792    0.158512
   2 C :    0.159944    0.158460
   3 C :    0.159792    0.158509
   4 C :    0.159944    0.158460
   5 O :   -0.050700    0.114722
   6 O :   -0.050696    0.114838
   7 O :   -0.050700    0.114722
   8 O :   -0.050695    0.114837
   9 C :    0.159941    0.158419
  10 C :    0.159941    0.158418
  11 O :   -0.050707    0.114718
  12 O :   -0.050707    0.114718

  Mayer bond orders larger than 0.100000
B(  0-Hf,  1-C ) :   0.5188 B(  0-Hf,  2-C ) :   0.5229 B(  0-Hf,  3-C ) :   0.5188
B(  0-Hf,  4-C ) :   0.5229 B(  0-Hf,  5-O ) :   0.1133 B(  0-Hf,  6-O ) :   0.1141
B(  0-Hf,  7-O ) :   0.1133 B(  0-Hf,  8-O ) :   0.1141 B(  0-Hf,  9-C ) :   0.5195
B(  0-Hf, 10-C ) :   0.5195 B(  0-Hf, 11-O ) :   0.1139 B(  0-Hf, 12-O ) :   0.1139
B(  1-C ,  3-C ) :   0.2400 B(  1-C ,  6-O ) :   2.3924 B(  2-C ,  4-C ) :   0.2397
B(  2-C ,  5-O ) :   2.3934 B(  3-C ,  8-O ) :   2.3923 B(  4-C ,  7-O ) :   2.3934
B(  9-C , 10-C ) :   0.2396 B(  9-C , 11-O ) :   2.3926 B( 10-C , 12-O ) :   2.3926

FINAL SINGLE POINT ENERGY      -726.937592124721

DIPOLE MOMENT
-------------
                                X             Y             Z
Electronic contribution:     -0.00116       0.00008       0.00035
Nuclear contribution   :      0.00112      -0.00009      -0.00034
                        -----------------------------------------
Total Dipole Moment    :     -0.00004      -0.00000       0.00001
                        -----------------------------------------
Magnitude (a.u.)       :      0.00004
Magnitude (Debye)      :      0.00010

VIBRATIONAL FREQUENCIES
-----------------------

Scaling factor for frequencies =  1.000000000  (already applied!)

   0:         0.00 cm**-1
   1:         0.00 cm**-1
   2:         0.00 cm**-1
   3:         0.00 cm**-1
   4:         0.00 cm**-1
   5:         0.00 cm**-1
   6:        35.97 cm**-1
   7:        36.25 cm**-1
   8:        36.40 cm**-1
   9:        53.70 cm**-1
  10:        53.77 cm**-1
  11:        53.87 cm**-1
  12:        57.51 cm**-1
  13:        57.65 cm**-1
  14:        57.72 cm**-1
  15:       245.12 cm**-1
  16:       245.13 cm**-1
  17:       245.52 cm**-1
  18:       271.19 cm**-1
  19:       271.93 cm**-1
  20:       273.24 cm**-1
  21:       275.81 cm**-1
  22:       276.19 cm**-1
  23:       298.53 cm**-1
  24:       322.65 cm**-1
  25:       322.68 cm**-1
  26:       322.76 cm**-1
  27:       349.49 cm**-1
  28:       349.77 cm**-1
  29:       349.88 cm**-1
  30:       375.23 cm**-1
  31:       375.60 cm**-1
  32:       375.77 cm**-1
  33:      2155.26 cm**-1
  34:      2155.27 cm**-1
  35:      2155.28 cm**-1
  36:      2177.41 cm**-1
  37:      2177.45 cm**-1
  38:      2244.57 cm**-1

IR SPECTRUM
-----------

 Mode   freq       eps      Int      T**2         TX        TY        TZ
       cm**-1   L/(mol*cm) km/mol    a.u.
----------------------------------------------------------------------------
  6:     35.97   0.000000    0.00  0.000000  ( 0.000305 -0.000010  0.000110)
  7:     36.25   0.000000    0.00  0.000000  (-0.000197 -0.000005  0.000280)
  8:     36.40   0.000000    0.00  0.000000  ( 0.000265 -0.000205 -0.000088)
  9:     53.70   0.000195    0.98  0.001130  ( 0.004362 -0.000030 -0.033336)
 10:     53.77   0.000195    0.98  0.001129  (-0.030556  0.013390 -0.003995)
 11:     53.87   0.000194    0.98  0.001121  (-0.013300 -0.030679 -0.001722)
 12:     57.51   0.000000    0.00  0.000000  ( 0.000000 -0.000001 -0.000002)
 13:     57.65   0.000000    0.00  0.000000  ( 0.000004 -0.000001  0.000013)
 14:     57.72   0.000000    0.00  0.000000  ( 0.000010  0.000006 -0.000004)
 15:    245.12   0.010178   51.43  0.012957  ( 0.004290 -0.083368  0.077387)
 16:    245.13   0.010180   51.45  0.012960  (-0.010329 -0.077479 -0.082769)
 17:    245.52   0.010169   51.39  0.012925  ( 0.113153 -0.003812 -0.010326)
 18:    271.19   0.000000    0.00  0.000000  (-0.000002  0.000003 -0.000013)
 19:    271.93   0.000000    0.00  0.000000  ( 0.000014 -0.000012 -0.000002)
 20:    273.24   0.000000    0.00  0.000000  ( 0.000001 -0.000001  0.000003)
 21:    275.81   0.000000    0.00  0.000000  (-0.000009 -0.000008  0.000002)
 22:    276.19   0.000000    0.00  0.000000  (-0.000001  0.000019 -0.000000)
 23:    298.53   0.000000    0.00  0.000000  ( 0.000003  0.000000 -0.000001)
 24:    322.65   0.000000    0.00  0.000000  ( 0.000004  0.000004  0.000013)
 25:    322.68   0.000000    0.00  0.000000  (-0.000006 -0.000005 -0.000012)
 26:    322.76   0.000000    0.00  0.000000  (-0.000017 -0.000013  0.000006)
 27:    349.49   0.000000    0.00  0.000000  (-0.000104 -0.000334  0.000381)
 28:    349.77   0.000001    0.00  0.000000  (-0.000121 -0.000213 -0.000637)
 29:    349.88   0.000000    0.00  0.000000  (-0.000408  0.000015 -0.000245)
 30:    375.23   0.004618   23.34  0.003841  (-0.004395  0.061674 -0.004197)
 31:    375.60   0.004653   23.51  0.003866  ( 0.011488 -0.003350 -0.061012)
 32:    375.77   0.004661   23.55  0.003871  ( 0.061019  0.005030  0.011048)
 33:   2155.26   0.378529  1912.93  0.054808  (-0.226910  0.037356  0.043865)
 34:   2155.27   0.378270  1911.62  0.054770  ( 0.012623  0.206072 -0.110204)
 35:   2155.28   0.378564  1913.11  0.054812  ( 0.056463  0.104457  0.201775)
 36:   2177.41   0.000000    0.00  0.000000  ( 0.000016  0.000007  0.000001)
 37:   2177.45   0.000000    0.00  0.000000  ( 0.000017 -0.000025 -0.000006)
 38:   2244.57   0.000000    0.00  0.000000  ( 0.000001  0.000000  0.000001)

--------------------------
THERMOCHEMISTRY AT 298.15K
--------------------------

Temperature         ... 298.15 K
Pressure            ... 1.00 atm
Total Mass          ... 346.55 AMU

Throughout the following assumptions are being made:
  (1) The electronic state is orbitally nondegenerate
      but the spin degeneracy is treated
  (2) There are no thermally accessible electronically excited states
  (3) Hindered rotations indicated by low frequency modes are not
      treated as such but are treated as vibrations and this may
      cause some error
  (4) All equations used are the standard statistical mechanics
      equations for an ideal gas
  (5) All vibrations are strictly harmonic

freq.      35.97  E(vib)   ...       0.54
freq.      36.25  E(vib)   ...       0.54
freq.      36.40  E(vib)   ...       0.54
freq.      53.70  E(vib)   ...       0.52
freq.      53.77  E(vib)   ...       0.52
freq.      53.87  E(vib)   ...       0.52
freq.      57.51  E(vib)   ...       0.51
freq.      57.65  E(vib)   ...       0.51
freq.      57.72  E(vib)   ...       0.51
freq.     245.12  E(vib)   ...       0.31
freq.     245.13  E(vib)   ...       0.31
freq.     245.52  E(vib)   ...       0.31
freq.     271.19  E(vib)   ...       0.29
freq.     271.93  E(vib)   ...       0.29
freq.     273.24  E(vib)   ...       0.29
freq.     275.81  E(vib)   ...       0.28
freq.     276.19  E(vib)   ...       0.28
freq.     298.53  E(vib)   ...       0.26
freq.     322.65  E(vib)   ...       0.25
freq.     322.68  E(vib)   ...       0.25
freq.     322.76  E(vib)   ...       0.25
freq.     349.49  E(vib)   ...       0.23
freq.     349.77  E(vib)   ...       0.23
freq.     349.88  E(vib)   ...       0.23
freq.     375.23  E(vib)   ...       0.21
freq.     375.60  E(vib)   ...       0.21
freq.     375.77  E(vib)   ...       0.21
freq.    2155.26  E(vib)   ...       0.00
freq.    2155.27  E(vib)   ...       0.00
freq.    2155.28  E(vib)   ...       0.00
freq.    2177.41  E(vib)   ...       0.00
freq.    2177.45  E(vib)   ...       0.00
freq.    2244.57  E(vib)   ...       0.00

------------
INNER ENERGY
------------

The inner energy is: U= E(el) + E(ZPE) + E(vib) + E(rot) + E(trans)
    E(el)   - is the total energy from the electronic structure calculation
              = E(kin-el) + E(nuc-el) + E(el-el) + E(nuc-nuc)
    E(ZPE)  - the the zero temperature vibrational energy from the frequency calculation
    E(vib)  - the the finite temperature correction to E(ZPE) due to population
              of excited vibrational states
    E(rot)  - is the rotational thermal energy
    E(trans)- is the translational thermal energy

Summary of contributions to the inner energy U:
Electronic energy                ...   -726.93759212 Eh
Zero point energy                ...      0.04340948 Eh      27.24 kcal/mol
Thermal vibrational correction   ...      0.01496869 Eh       9.39 kcal/mol
Thermal rotational correction    ...      0.00141627 Eh       0.89 kcal/mol
Thermal translational correction ...      0.00141627 Eh       0.89 kcal/mol
-----------------------------------------------------------------------
Total thermal energy                   -726.87638141 Eh

Summary of corrections to the electronic energy:
(perhaps to be used in another calculation)
Total thermal correction                  0.01780123 Eh      11.17 kcal/mol
Non-thermal (ZPE) correction              0.04340948 Eh      27.24 kcal/mol
-----------------------------------------------------------------------
Total correction                          0.06121071 Eh      38.41 kcal/mol

--------
ENTHALPY
--------

The enthalpy is H = U + kB*T
                kB is Boltzmann's constant
Total free energy                 ...   -726.87638141 Eh
Thermal Enthalpy correction       ...      0.00094421 Eh       0.59 kcal/mol
-----------------------------------------------------------------------
Total Enthalpy                    ...   -726.87543720 Eh

Note: Only C1 symmetry has been detected, increase convergence thresholds
      if your molecule has a higher symmetry. Symmetry factor of 1.0 is
      used for the rotational entropy correction.

Note: Rotational entropy computed according to Herzberg
Infrared and Raman Spectra, Chapter V,1, Van Nostrand Reinhold, 1945
Point Group:  C1, Symmetry Number:   1
Rotational constants in cm-1:     0.016309     0.016300     0.016292

Vibrational entropy computed according to the QRRHO of S. Grimme
Chem.Eur.J. 2012 18 9955

-------
ENTROPY
-------

The entropy contributions are T*S = T*(S(el)+S(vib)+S(rot)+S(trans))
     S(el)   - electronic entropy
     S(vib)  - vibrational entropy
     S(rot)  - rotational entropy
     S(trans)- translational entropy
The entropies will be listed as multiplied by the temperature to get
units of energy

Electronic entropy                ...      0.00130891 Eh      0.82 kcal/mol
Vibrational entropy               ...      0.02762260 Eh     17.33 kcal/mol
Rotational entropy                ...      0.01534099 Eh      9.63 kcal/mol
Translational entropy             ...      0.02063146 Eh     12.95 kcal/mol
-----------------------------------------------------------------------
Final entropy term                ...      0.06490397 Eh     40.73 kcal/mol

In case the symmetry of your molecule has not been determined correctly
or in case you have a reason to use a different symmetry number we print
out the resulting rotational entropy values for sn=1,12 :
 --------------------------------------------------------
|  sn= 1 | S(rot)=       0.01534099 Eh      9.63 kcal/mol|
|  sn= 2 | S(rot)=       0.01468653 Eh      9.22 kcal/mol|
|  sn= 3 | S(rot)=       0.01430370 Eh      8.98 kcal/mol|
|  sn= 4 | S(rot)=       0.01403208 Eh      8.81 kcal/mol|
|  sn= 5 | S(rot)=       0.01382139 Eh      8.67 kcal/mol|
|  sn= 6 | S(rot)=       0.01364925 Eh      8.57 kcal/mol|
|  sn= 7 | S(rot)=       0.01350370 Eh      8.47 kcal/mol|
|  sn= 8 | S(rot)=       0.01337762 Eh      8.39 kcal/mol|
|  sn= 9 | S(rot)=       0.01326641 Eh      8.32 kcal/mol|
|  sn=10 | S(rot)=       0.01316693 Eh      8.26 kcal/mol|
|  sn=11 | S(rot)=       0.01307694 Eh      8.21 kcal/mol|
|  sn=12 | S(rot)=       0.01299479 Eh      8.15 kcal/mol|
 --------------------------------------------------------

-------------------
GIBBS FREE ENERGY
-------------------

The Gibbs free energy is G = H - T*S

Total enthalpy                    ...   -726.87543720 Eh
Total entropy correction          ...     -0.06490397 Eh    -40.73 kcal/mol
-----------------------------------------------------------------------
Final Gibbs free energy         ...   -726.94034117 Eh

For completeness - the Gibbs free energy minus the electronic energy
G-E(el)                           ...     -0.00274905 Eh     -1.73 kcal/mol

                             ****ORCA TERMINATED NORMALLY****
TOTAL RUN TIME: 0 days 0 hours 14 minutes 3 seconds 457 msec
