                         Program Version 5.0.4 -  RELEASE  -
|  1> !B3LYP def2-SVPD OPT FREQ TightSCF PAL8
|  2>
|  3> %scf
|  4>   MaxIter 300
|  5> end
|  6>
|  7> * xyz 0 1
|  8> Mo        -1.16223        1.46231        0.00440
|  9> C         -1.14093        3.60205        0.19585
| 10> C          0.98556        1.43752        0.04741
| 11> C         -3.31010        1.48732       -0.03858
| 12> C         -1.18366       -0.67745       -0.18705
| 13> O         -1.12965        4.72557        0.29572
| 14> O          2.11331        1.42466        0.06986
| 15> O         -1.19503       -1.80094       -0.28692
| 16> O         -4.43774        1.50041       -0.06100
| 17> C         -1.11654        1.65584       -2.13477
| 18> C         -1.20787        1.26853        2.14358
| 19> O         -1.09237        1.75804       -3.25788
| 20> O         -1.23196        1.16609        3.26663
| 21> **                         ****END OF INPUT****
 Total Charge           Charge          ....    0
 Multiplicity           Mult            ....    1
 Number of Electrons    NEL             ....   98
FINAL SINGLE POINT ENERGY      -747.489879924185
FINAL SINGLE POINT ENERGY      -747.498340656319
FINAL SINGLE POINT ENERGY      -747.501935708149
FINAL SINGLE POINT ENERGY      -747.502233127974
FINAL SINGLE POINT ENERGY      -747.502268227557
                    ***********************HURRAY********************

CARTESIAN COORDINATES (ANGSTROEM)
---------------------------------
  Mo    -1.162250    1.462299    0.004403
  C     -1.142044    3.530336    0.190239
  C      0.912895    1.437835    0.046582
  C     -3.237409    1.486853   -0.037763
  C     -1.182478   -0.605742   -0.181441
  O     -1.130843    4.670540    0.292723
  O      2.057454    1.424382    0.070130
  O     -1.193715   -1.745944   -0.283934
  O     -4.381965    1.500458   -0.061294
  C     -1.118960    1.648255   -2.063180
  C     -1.205501    1.276268    2.071986
  O     -1.094938    1.751533   -3.203114
  O     -1.229455    1.172877    3.211911

 Multiplicity           Mult            ....    1
 Number of Electrons    NEL             ....   98
 Basis Dimension        Dim             ....  292

ORBITAL ENERGIES
----------------

  NO   OCC          E(Eh)            E(eV)
   0   2.0000     -19.246114      -523.7134
   1   2.0000     -19.246076      -523.7124
   2   2.0000     -19.246046      -523.7115
   3   2.0000     -19.246036      -523.7113
   4   2.0000     -19.245981      -523.7098
   5   2.0000     -19.245955      -523.7091
   6   2.0000     -10.324837      -280.9531
   7   2.0000     -10.324783      -280.9516
   8   2.0000     -10.324778      -280.9515
   9   2.0000     -10.324766      -280.9512
  10   2.0000     -10.324685      -280.9490
  11   2.0000     -10.324608      -280.9469
  12   2.0000      -2.580243       -70.2120
  13   2.0000      -1.579820       -42.9891
  14   2.0000      -1.579789       -42.9882
  15   2.0000      -1.579782       -42.9881
  16   2.0000      -1.150206       -31.2987
  17   2.0000      -1.149620       -31.2827
  18   2.0000      -1.149611       -31.2825
  19   2.0000      -1.149529       -31.2803
  20   2.0000      -1.149472       -31.2787
  21   2.0000      -1.149411       -31.2771
  22   2.0000      -0.603998       -16.4356
  23   2.0000      -0.580439       -15.7945
  24   2.0000      -0.580408       -15.7937
  25   2.0000      -0.575777       -15.6677
  26   2.0000      -0.575765       -15.6674
  27   2.0000      -0.575702       -15.6656
  28   2.0000      -0.510011       -13.8781
  29   2.0000      -0.493133       -13.4188
  30   2.0000      -0.493119       -13.4185
  31   2.0000      -0.493114       -13.4183
  32   2.0000      -0.486578       -13.2404
  33   2.0000      -0.486554       -13.2398
  34   2.0000      -0.486542       -13.2395
  35   2.0000      -0.483211       -13.1488
  36   2.0000      -0.483189       -13.1482
  37   2.0000      -0.479382       -13.0446
  38   2.0000      -0.479348       -13.0437
  39   2.0000      -0.479337       -13.0434
  40   2.0000      -0.474595       -12.9144
  41   2.0000      -0.474555       -12.9133
  42   2.0000      -0.474551       -12.9132
  43   2.0000      -0.424321       -11.5463
  44   2.0000      -0.424288       -11.5455
  45   2.0000      -0.424221       -11.5436
  46   2.0000      -0.257655        -7.0112
  47   2.0000      -0.257636        -7.0106
  48   2.0000      -0.257582        -7.0092
  49   0.0000      -0.078766        -2.1433
  50   0.0000      -0.078737        -2.1425
  51   0.0000      -0.078726        -2.1422
  52   0.0000      -0.055691        -1.5154
  53   0.0000      -0.055657        -1.5145

MULLIKEN ATOMIC CHARGES
-----------------------
   0 Mo:   -2.367968
   1 C :    0.719527
   2 C :    0.719918
   3 C :    0.719898
   4 C :    0.719588
   5 O :   -0.325177
   6 O :   -0.324650
   7 O :   -0.325194
   8 O :   -0.324642
   9 C :    0.719537
  10 C :    0.719547
  11 O :   -0.325192
  12 O :   -0.325192
Sum of atomic charges:   -0.0000000

LOEWDIN ATOMIC CHARGES
----------------------
   0 Mo:   -0.180620
   1 C :    0.124286
   2 C :    0.123922
   3 C :    0.123929
   4 C :    0.124288
   5 O :   -0.094031
   6 O :   -0.094078
   7 O :   -0.094031
   8 O :   -0.094078
   9 C :    0.124238
  10 C :    0.124241
  11 O :   -0.094034
  12 O :   -0.094034

  Mayer bond orders larger than 0.100000
B(  0-Mo,  1-C ) :   1.1221 B(  0-Mo,  2-C ) :   1.1228 B(  0-Mo,  3-C ) :   1.1227
B(  0-Mo,  4-C ) :   1.1221 B(  0-Mo,  5-O ) :   0.1391 B(  0-Mo,  6-O ) :   0.1387
B(  0-Mo,  7-O ) :   0.1391 B(  0-Mo,  8-O ) :   0.1387 B(  0-Mo,  9-C ) :   1.1221
B(  0-Mo, 10-C ) :   1.1221 B(  0-Mo, 11-O ) :   0.1391 B(  0-Mo, 12-O ) :   0.1391
B(  1-C ,  5-O ) :   2.2792 B(  2-C ,  6-O ) :   2.2790 B(  3-C ,  8-O ) :   2.2791
B(  4-C ,  7-O ) :   2.2792 B(  9-C , 11-O ) :   2.2792 B( 10-C , 12-O ) :   2.2792

FINAL SINGLE POINT ENERGY      -747.502268240444

DIPOLE MOMENT
-------------
                                X             Y             Z
Electronic contribution:     -0.00020      -0.00026      -0.00002
Nuclear contribution   :      0.00016       0.00024       0.00003
                        -----------------------------------------
Total Dipole Moment    :     -0.00003      -0.00002       0.00001
                        -----------------------------------------
Magnitude (a.u.)       :      0.00004
Magnitude (Debye)      :      0.00010

VIBRATIONAL FREQUENCIES
-----------------------

Scaling factor for frequencies =  1.000000000  (already applied!)

   0:         0.00 cm**-1
   1:         0.00 cm**-1
   2:         0.00 cm**-1
   3:         0.00 cm**-1
   4:         0.00 cm**-1
   5:         0.00 cm**-1
   6:        59.50 cm**-1
   7:        59.53 cm**-1
   8:        59.77 cm**-1
   9:        83.44 cm**-1
  10:        83.51 cm**-1
  11:        83.66 cm**-1
  12:        87.76 cm**-1
  13:        87.78 cm**-1
  14:        88.06 cm**-1
  15:       347.34 cm**-1
  16:       347.36 cm**-1
  17:       347.71 cm**-1
  18:       372.78 cm**-1
  19:       372.88 cm**-1
  20:       373.58 cm**-1
  21:       389.58 cm**-1
  22:       390.01 cm**-1
  23:       406.23 cm**-1
  24:       488.64 cm**-1
  25:       488.70 cm**-1
  26:       488.72 cm**-1
  27:       524.79 cm**-1
  28:       524.92 cm**-1
  29:       524.92 cm**-1
  30:       614.30 cm**-1
  31:       614.44 cm**-1
  32:       614.46 cm**-1
  33:      2078.28 cm**-1
  34:      2078.39 cm**-1
  35:      2078.41 cm**-1
  36:      2103.72 cm**-1
  37:      2103.75 cm**-1
  38:      2200.66 cm**-1

IR SPECTRUM
-----------

 Mode   freq       eps      Int      T**2         TX        TY        TZ
       cm**-1   L/(mol*cm) km/mol    a.u.
----------------------------------------------------------------------------
  6:     59.50   0.000000    0.00  0.000000  (-0.000014  0.000012  0.000057)
  7:     59.53   0.000000    0.00  0.000000  (-0.000001  0.000013  0.000056)
  8:     59.77   0.000000    0.00  0.000000  ( 0.000256 -0.000074 -0.000106)
  9:     83.44   0.000000    0.00  0.000000  ( 0.000000 -0.000000 -0.000004)
 10:     83.51   0.000000    0.00  0.000000  (-0.000001 -0.000001  0.000003)
 11:     83.66   0.000000    0.00  0.000000  ( 0.000004 -0.000000 -0.000000)
 12:     87.76   0.000320    1.62  0.001138  ( 0.003980  0.020000 -0.026871)
 13:     87.78   0.000320    1.62  0.001139  ( 0.000246 -0.027089 -0.020122)
 14:     88.06   0.000319    1.61  0.001131  (-0.033399  0.002169 -0.003331)
 15:    347.34   0.000000    0.00  0.000000  ( 0.000002 -0.000000  0.000002)
 16:    347.36   0.000000    0.00  0.000000  ( 0.000002 -0.000000 -0.000001)
 17:    347.71   0.000000    0.00  0.000000  ( 0.000000 -0.000000  0.000000)
 18:    372.78   0.011165   56.42  0.009346  ( 0.000232  0.091934  0.029907)
 19:    372.88   0.011171   56.45  0.009349  ( 0.003170  0.029967 -0.091873)
 20:    373.58   0.011141   56.30  0.009306  (-0.096413  0.001254 -0.003048)
 21:    389.58   0.000000    0.00  0.000000  (-0.000012  0.000016  0.000009)
 22:    390.01   0.000000    0.00  0.000000  (-0.000023 -0.000019 -0.000009)
 23:    406.23   0.000000    0.00  0.000000  (-0.000010 -0.000006  0.000004)
 24:    488.64   0.000000    0.00  0.000000  (-0.000000 -0.000000 -0.000005)
 25:    488.70   0.000000    0.00  0.000000  ( 0.000007  0.000000 -0.000004)
 26:    488.72   0.000000    0.00  0.000000  ( 0.000005 -0.000001  0.000004)
 27:    524.79   0.000000    0.00  0.000000  (-0.000001  0.000004 -0.000002)
 28:    524.92   0.000000    0.00  0.000000  (-0.000026 -0.000053 -0.000127)
 29:    524.92   0.000000    0.00  0.000000  (-0.000007  0.000048  0.000095)
 30:    614.30   0.021088  106.57  0.010712  ( 0.101945 -0.014443  0.010534)
 31:    614.44   0.021043  106.34  0.010687  (-0.016109 -0.047422  0.090438)
 32:    614.46   0.021067  106.47  0.010699  (-0.007781 -0.090738 -0.049046)
 33:   2078.28   0.428965  2167.81  0.064411  ( 0.253734 -0.004788 -0.002694)
 34:   2078.39   0.428600  2165.97  0.064353  ( 0.005478  0.203650  0.151162)
 35:   2078.41   0.428985  2167.91  0.064410  ( 0.000573  0.151290 -0.203767)
 36:   2103.72   0.000000    0.00  0.000000  ( 0.000013 -0.000016 -0.000001)
 37:   2103.75   0.000000    0.00  0.000000  (-0.000011  0.000009 -0.000005)
 38:   2200.66   0.000000    0.00  0.000000  ( 0.000000 -0.000001 -0.000000)

--------------------------
THERMOCHEMISTRY AT 298.15K
--------------------------

Temperature         ... 298.15 K
Pressure            ... 1.00 atm
Total Mass          ... 264.00 AMU

Throughout the following assumptions are being made:
  (1) The electronic state is orbitally nondegenerate
  (2) There are no thermally accessible electronically excited states
  (3) Hindered rotations indicated by low frequency modes are not
      treated as such but are treated as vibrations and this may
      cause some error
  (4) All equations used are the standard statistical mechanics
      equations for an ideal gas
  (5) All vibrations are strictly harmonic

freq.      59.50  E(vib)   ...       0.51
freq.      59.53  E(vib)   ...       0.51
freq.      59.77  E(vib)   ...       0.51
freq.      83.44  E(vib)   ...       0.48
freq.      83.51  E(vib)   ...       0.48
freq.      83.66  E(vib)   ...       0.48
freq.      87.76  E(vib)   ...       0.48
freq.      87.78  E(vib)   ...       0.48
freq.      88.06  E(vib)   ...       0.48
freq.     347.34  E(vib)   ...       0.23
freq.     347.36  E(vib)   ...       0.23
freq.     347.71  E(vib)   ...       0.23
freq.     372.78  E(vib)   ...       0.21
freq.     372.88  E(vib)   ...       0.21
freq.     373.58  E(vib)   ...       0.21
freq.     389.58  E(vib)   ...       0.20
freq.     390.01  E(vib)   ...       0.20
freq.     406.23  E(vib)   ...       0.19
freq.     488.64  E(vib)   ...       0.15
freq.     488.70  E(vib)   ...       0.15
freq.     488.72  E(vib)   ...       0.15
freq.     524.79  E(vib)   ...       0.13
freq.     524.92  E(vib)   ...       0.13
freq.     524.92  E(vib)   ...       0.13
freq.     614.30  E(vib)   ...       0.10
freq.     614.44  E(vib)   ...       0.10
freq.     614.46  E(vib)   ...       0.10
freq.    2078.28  E(vib)   ...       0.00
freq.    2078.39  E(vib)   ...       0.00
freq.    2078.41  E(vib)   ...       0.00
freq.    2103.72  E(vib)   ...       0.00
freq.    2103.75  E(vib)   ...       0.00
freq.    2200.66  E(vib)   ...       0.00

------------
INNER ENERGY
------------

The inner energy is: U= E(el) + E(ZPE) + E(vib) + E(rot) + E(trans)
    E(el)   - is the total energy from the electronic structure calculation
              = E(kin-el) + E(nuc-el) + E(el-el) + E(nuc-nuc)
    E(ZPE)  - the the zero temperature vibrational energy from the frequency calculation
    E(vib)  - the the finite temperature correction to E(ZPE) due to population
              of excited vibrational states
    E(rot)  - is the rotational thermal energy
    E(trans)- is the translational thermal energy

Summary of contributions to the inner energy U:
Electronic energy                ...   -747.50226824 Eh
Zero point energy                ...      0.04913453 Eh      30.83 kcal/mol
Thermal vibrational correction   ...      0.01183909 Eh       7.43 kcal/mol
Thermal rotational correction    ...      0.00141627 Eh       0.89 kcal/mol
Thermal translational correction ...      0.00141627 Eh       0.89 kcal/mol
-----------------------------------------------------------------------
Total thermal energy                   -747.43846207 Eh

Summary of corrections to the electronic energy:
(perhaps to be used in another calculation)
Total thermal correction                  0.01467164 Eh       9.21 kcal/mol
Non-thermal (ZPE) correction              0.04913453 Eh      30.83 kcal/mol
-----------------------------------------------------------------------
Total correction                          0.06380617 Eh      40.04 kcal/mol

--------
ENTHALPY
--------

The enthalpy is H = U + kB*T
                kB is Boltzmann's constant
Total free energy                 ...   -747.43846207 Eh
Thermal Enthalpy correction       ...      0.00094421 Eh       0.59 kcal/mol
-----------------------------------------------------------------------
Total Enthalpy                    ...   -747.43751786 Eh

Note: Only C1 symmetry has been detected, increase convergence thresholds
      if your molecule has a higher symmetry. Symmetry factor of 1.0 is
      used for the rotational entropy correction.

Note: Rotational entropy computed according to Herzberg
Infrared and Raman Spectra, Chapter V,1, Van Nostrand Reinhold, 1945
Point Group:  C1, Symmetry Number:   1
Rotational constants in cm-1:     0.019361     0.019351     0.019347

Vibrational entropy computed according to the QRRHO of S. Grimme
Chem.Eur.J. 2012 18 9955

-------
ENTROPY
-------

The entropy contributions are T*S = T*(S(el)+S(vib)+S(rot)+S(trans))
     S(el)   - electronic entropy
     S(vib)  - vibrational entropy
     S(rot)  - rotational entropy
     S(trans)- translational entropy
The entropies will be listed as multiplied by the temperature to get
units of energy

Electronic entropy                ...      0.00000000 Eh      0.00 kcal/mol
Vibrational entropy               ...      0.02135506 Eh     13.40 kcal/mol
Rotational entropy                ...      0.01509788 Eh      9.47 kcal/mol
Translational entropy             ...      0.02024613 Eh     12.70 kcal/mol
-----------------------------------------------------------------------
Final entropy term                ...      0.05669908 Eh     35.58 kcal/mol

In case the symmetry of your molecule has not been determined correctly
or in case you have a reason to use a different symmetry number we print
out the resulting rotational entropy values for sn=1,12 :
 --------------------------------------------------------
|  sn= 1 | S(rot)=       0.01509788 Eh      9.47 kcal/mol|
|  sn= 2 | S(rot)=       0.01444343 Eh      9.06 kcal/mol|
|  sn= 3 | S(rot)=       0.01406059 Eh      8.82 kcal/mol|
|  sn= 4 | S(rot)=       0.01378897 Eh      8.65 kcal/mol|
|  sn= 5 | S(rot)=       0.01357828 Eh      8.52 kcal/mol|
|  sn= 6 | S(rot)=       0.01340614 Eh      8.41 kcal/mol|
|  sn= 7 | S(rot)=       0.01326059 Eh      8.32 kcal/mol|
|  sn= 8 | S(rot)=       0.01313451 Eh      8.24 kcal/mol|
|  sn= 9 | S(rot)=       0.01302331 Eh      8.17 kcal/mol|
|  sn=10 | S(rot)=       0.01292383 Eh      8.11 kcal/mol|
|  sn=11 | S(rot)=       0.01283384 Eh      8.05 kcal/mol|
|  sn=12 | S(rot)=       0.01275168 Eh      8.00 kcal/mol|
 --------------------------------------------------------

-------------------
GIBBS FREE ENERGY
-------------------

The Gibbs free energy is G = H - T*S

Total enthalpy                    ...   -747.43751786 Eh
Total entropy correction          ...     -0.05669908 Eh    -35.58 kcal/mol
-----------------------------------------------------------------------
Final Gibbs free energy         ...   -747.49421694 Eh

For completeness - the Gibbs free energy minus the electronic energy
G-E(el)                           ...      0.00805130 Eh      5.05 kcal/mol

                             ****ORCA TERMINATED NORMALLY****
TOTAL RUN TIME: 0 days 0 hours 11 minutes 15 seconds 351 msec
