                         Program Version 5.0.4 -  RELEASE  -
|  1> # input to generate an atomic fitting density for Os
|  2> # this file is used internally by ORCA
|  3> #
|  4> # atomic ground state (S=5): 1s2 2s2 2p6 3s2 3p6 4s2 3d10 4p6 5s2 4d10 5p6 6s2 4f14 5d6
|  5> #
|  6> ! RHF AllowRHF def2-SVP def2/J  NoMulliken NoLoewdin NoMayer NoPrintMOs
|  7>
|  8> %output print[p_atomdensfit] 2 end
|  9>
| 10> %scf
| 11>   guess hcore
| 12>   maxiter 1000
| 13>   maxdisk 500000
| 14>   SCFMode Conventional
| 15>   lshift 1.000000
| 16>   hftyp rohf
| 17>   rohf_case sahf
| 18>   rohf_numop   2
| 19>   rohf_norb[1] 5
| 20>   rohf_nel[1]  6
| 21> end
| 22>
| 23> %basis
| 24>   NewECP 76
| 25>     N_core 60
| 26>     lmax f
| 27>     s 3
| 28>       1      13.8757539000    885.4057191000  2
| 29>       2       6.9378769000     25.9670401000  2
| 30>       3       2.7670751000    -18.9094570000  2
| 31>     p 3
| 32>       1      10.1937926000    320.0839019000  2
| 33>       2       5.0968962000     26.1487649000  2
| 34>       3       2.7670751000    -18.9094570000  2
| 35>     d 3
| 36>       1       7.0992385000    115.0448431000  2
| 37>       2       3.5496192000     13.6225746000  2
| 38>       3       2.7670751000    -18.9094570000  2
| 39>     f 1
| 40>       1       2.7670751000     18.9094570000  2
| 41>   end
| 42>   NewGTO 76
| 43>     s 2
| 44>      1      15.2867360000     -1.3399300444
| 45>      2      12.7006380000      2.3198012485
| 46>     s 1
| 47>      1       5.7094832504      1.0000000000
| 48>     s 1
| 49>      1       1.0689228744      1.0000000000
| 50>     s 1
| 51>      1       0.4678354375      1.0000000000
| 52>     s 1
| 53>      1       0.1325345699      1.0000000000
| 54>     s 1
| 55>      1       0.0471019829      1.0000000000
| 56>     p 4
| 57>      1       7.9362790000      0.3726407596
| 58>      2       6.3036410000     -0.6197542002
| 59>      3       1.4351579676      0.5755707405
| 60>      4       0.6844274972      0.5765083972
| 61>     p 1
| 62>      1       0.2834739497      1.0000000000
| 63>     p 1
| 64>      1       0.0480000000      1.0000000000
| 65>     d 4
| 66>      1       3.5808150000     -0.4890386345
| 67>      2       3.1961650000      0.5087889911
| 68>      3       1.0550226354      0.4995059512
| 69>      4       0.4158840662      0.5513109964
| 70>     d 1
| 71>      1       0.1465350787      1.0000000000
| 72>     f 1
| 73>      1       0.5506500000      1.0000000000
| 74>     p 1
| 75>      1       0.1283000000      1.0000000000
| 76>   end
| 77>   NewAuxGTO 76
| 78>     S 1
| 79>      1 1310.72 1.0
| 80>     S 1
| 81>      1  655.36 1.0
| 82>     S 1
| 83>      1  327.68 1.0
| 84>     S 1
| 85>      1  163.84 1.0
| 86>     S 1
| 87>      1   81.82 1.0
| 88>     S 1
| 89>      1   40.96 1.0
| 90>     S 1
| 91>      1   20.48 1.0
| 92>     S 1
| 93>      1   10.24 1.0
| 94>     S 1
| 95>      1    5.12 1.0
| 96>     S 1
| 97>      1    2.56 1.0
| 98>     S 1
| 99>      1    1.28 1.0
|100>     S 1
|101>      1    0.64 1.0
|102>     S 1
|103>      1    0.32 1.0
|104>     S 1
|105>      1    0.16 1.0
|106>     S 1
|107>      1    0.08 1.0
|108>     S 1
|109>      1    0.04 1.0
|110>     S 1
|111>      1    0.02 1.0
|112>     S 1
|113>      1    0.01 1.0
|114>   end
|115> end
|116>
|117> * xyz 0 5
|118> 76  0.0 0.0 0.0
|119> *
|120>
|121>
|122>                          ****END OF INPUT****

CARTESIAN COORDINATES (ANGSTROEM)
---------------------------------
  Os     0.000000    0.000000    0.000000

 Total Charge           Charge          ....    0
 Multiplicity           Mult            ....    5
 Number of Electrons    NEL             ....   16
 Basis Dimension        Dim             ....   35

ORBITAL ENERGIES
----------------

  NO   OCC          E(Eh)            E(eV)
   0   2.0000      -3.891892      -105.9038
   1   2.0000      -2.174043       -59.1587
   2   2.0000      -2.173020       -59.1309
   3   2.0000      -2.164965       -58.9117
   4   2.0000      -0.322426        -8.7737
   5   1.2000      -0.385336       -10.4855
   6   1.2000      -0.385237       -10.4828
   7   1.2000      -0.367409        -9.9977
   8   1.2000      -0.365036        -9.9331
   9   1.2000      -0.290514        -7.9053
  10   0.0000       0.023241         0.6324
  11   0.0000       0.024017         0.6535
  12   0.0000       0.030021         0.8169
  13   0.0000       0.193052         5.2532
  14   0.0000       0.271616         7.3911

FINAL SINGLE POINT ENERGY       -89.789612123977

DIPOLE MOMENT
-------------
                                X             Y             Z
Electronic contribution:      0.00000       0.00000       0.00000
Nuclear contribution   :      0.00000       0.00000       0.00000
                        -----------------------------------------
Total Dipole Moment    :      0.00000       0.00000       0.00000
                        -----------------------------------------
Magnitude (a.u.)       :      0.00000
Magnitude (Debye)      :      0.00000

Rotational constants in cm-1:     0.000000     0.000000     0.000000
Rotational constants in MHz :     0.000000     0.000000     0.000000

                             ****ORCA TERMINATED NORMALLY****
TOTAL RUN TIME: 0 days 0 hours 0 minutes 1 seconds 214 msec
