                         Program Version 5.0.4 -  RELEASE  -
|  1> !B3LYP def2-SVPD OPT FREQ TightSCF PAL8
|  2>
|  3> %scf
|  4>   MaxIter 300
|  5> end
|  6>
|  7> * xyz 0 2
|  8> Ta         0.27389        0.93013        0.02870
|  9> C          2.48952        0.92813        0.05974
| 10> C          0.27413        3.14227        0.15631
| 11> C         -1.94181        0.93257       -0.00228
| 12> C          0.27335       -1.28214       -0.09889
| 13> O          0.27421        4.26850        0.22072
| 14> O          3.61744        0.92722        0.07540
| 15> O         -3.06965        0.93392       -0.01792
| 16> O          0.27303       -2.40821       -0.16332
| 17> C          0.30585        1.06042       -2.18307
| 18> C          0.24221        0.79935        2.24054
| 19> O          0.32231        1.12721       -3.30901
| 20> O          0.22601        0.73218        3.36636
| 21> **                         ****END OF INPUT****
 Total Charge           Charge          ....    0
 Multiplicity           Mult            ....    2
 Number of Electrons    NEL             ....   97
FINAL SINGLE POINT ENERGY      -736.235213756315
FINAL SINGLE POINT ENERGY      -736.242020396253
FINAL SINGLE POINT ENERGY      -736.243549457465
FINAL SINGLE POINT ENERGY      -736.244048090736
FINAL SINGLE POINT ENERGY      -736.244364612880
FINAL SINGLE POINT ENERGY      -736.244375331132
FINAL SINGLE POINT ENERGY      -736.244401023461
FINAL SINGLE POINT ENERGY      -736.244403087460
                    ***********************HURRAY********************

CARTESIAN COORDINATES (ANGSTROEM)
---------------------------------
  Ta     0.273881    0.930094    0.028713
  C      2.447639    0.843859   -0.034640
  C      0.186259    3.104389    0.060589
  C     -1.899866    1.016413    0.092111
  C      0.361459   -1.244196   -0.003212
  O      0.134517    4.249296    0.062879
  O      3.591564    0.793493   -0.082767
  O     -3.043785    1.066924    0.140287
  O      0.413135   -2.389111   -0.005552
  C      0.397525    1.150566   -2.131730
  C      0.150281    0.709625    2.189163
  O      0.468217    1.278963   -3.268396
  O      0.079663    0.581236    3.325838

 Multiplicity           Mult            ....    2
 Number of Electrons    NEL             ....   97
 Basis Dimension        Dim             ....  293

ORBITAL ENERGIES
----------------
                 SPIN UP ORBITALS
  NO   OCC          E(Eh)            E(eV)
   0   1.0000     -19.247818      -523.7597
   1   1.0000     -19.247778      -523.7587
   2   1.0000     -19.247708      -523.7567
   3   1.0000     -19.247671      -523.7557
   4   1.0000     -19.247546      -523.7524
   5   1.0000     -19.247510      -523.7514
   6   1.0000     -10.321194      -280.8540
   7   1.0000     -10.321189      -280.8538
   8   1.0000     -10.321114      -280.8518
   9   1.0000     -10.321085      -280.8510
  10   1.0000     -10.320943      -280.8471
  11   1.0000     -10.320849      -280.8446
  12   1.0000      -2.712578       -73.8130
  13   1.0000      -1.471299       -40.0361
  14   1.0000      -1.459515       -39.7154
  15   1.0000      -1.459447       -39.7136
  16   1.0000      -1.150040       -31.2942
  17   1.0000      -1.149669       -31.2841
  18   1.0000      -1.149541       -31.2806
  19   1.0000      -1.149487       -31.2791
  20   1.0000      -1.149334       -31.2750
  21   1.0000      -1.149304       -31.2742
  22   1.0000      -0.605792       -16.4844
  23   1.0000      -0.580463       -15.7952
  24   1.0000      -0.580330       -15.7916
  25   1.0000      -0.577719       -15.7205
  26   1.0000      -0.577653       -15.7187
  27   1.0000      -0.575066       -15.6483
  28   1.0000      -0.514566       -14.0021
  29   1.0000      -0.491351       -13.3703
  30   1.0000      -0.491330       -13.3698
  31   1.0000      -0.491253       -13.3677
  32   1.0000      -0.487003       -13.2520
  33   1.0000      -0.486950       -13.2506
  34   1.0000      -0.485801       -13.2193
  35   1.0000      -0.480883       -13.0855
  36   1.0000      -0.479494       -13.0477
  37   1.0000      -0.479381       -13.0446
  38   1.0000      -0.479328       -13.0432
  39   1.0000      -0.479275       -13.0417
  40   1.0000      -0.474807       -12.9202
  41   1.0000      -0.471112       -12.8196
  42   1.0000      -0.471038       -12.8176
  43   1.0000      -0.431203       -11.7336
  44   1.0000      -0.431128       -11.7316
  45   1.0000      -0.418427       -11.3860
  46   1.0000      -0.236196        -6.4272
  47   1.0000      -0.231586        -6.3018
  48   1.0000      -0.231463        -6.2984
  49   0.0000      -0.087442        -2.3794
  50   0.0000      -0.087295        -2.3754
  51   0.0000      -0.085932        -2.3383
  52   0.0000      -0.069681        -1.8961
  53   0.0000      -0.056345        -1.5332

                 SPIN DOWN ORBITALS
  NO   OCC          E(Eh)            E(eV)
   0   1.0000     -19.246623      -523.7272
   1   1.0000     -19.246583      -523.7262
   2   1.0000     -19.246521      -523.7245
   3   1.0000     -19.246484      -523.7235
   4   1.0000     -19.246363      -523.7202
   5   1.0000     -19.246326      -523.7192
   6   1.0000     -10.321196      -280.8540
   7   1.0000     -10.321189      -280.8538
   8   1.0000     -10.321117      -280.8519
   9   1.0000     -10.321087      -280.8511
  10   1.0000     -10.320947      -280.8472
  11   1.0000     -10.320852      -280.8447
  12   1.0000      -2.703101       -73.5551
  13   1.0000      -1.451076       -39.4858
  14   1.0000      -1.451036       -39.4847
  15   1.0000      -1.449106       -39.4322
  16   1.0000      -1.148168       -31.2433
  17   1.0000      -1.147795       -31.2331
  18   1.0000      -1.147679       -31.2299
  19   1.0000      -1.147618       -31.2283
  20   1.0000      -1.147475       -31.2244
  21   1.0000      -1.147441       -31.2234
  22   1.0000      -0.602161       -16.3856
  23   1.0000      -0.578324       -15.7370
  24   1.0000      -0.578203       -15.7337
  25   1.0000      -0.575740       -15.6667
  26   1.0000      -0.575686       -15.6652
  27   1.0000      -0.572938       -15.5904
  28   1.0000      -0.511486       -13.9183
  29   1.0000      -0.489290       -13.3143
  30   1.0000      -0.489257       -13.3134
  31   1.0000      -0.484185       -13.1753
  32   1.0000      -0.484005       -13.1705
  33   1.0000      -0.483742       -13.1633
  34   1.0000      -0.480347       -13.0709
  35   1.0000      -0.479696       -13.0532
  36   1.0000      -0.475714       -12.9448
  37   1.0000      -0.475693       -12.9443
  38   1.0000      -0.474952       -12.9241
  39   1.0000      -0.474935       -12.9236
  40   1.0000      -0.474258       -12.9052
  41   1.0000      -0.468008       -12.7351
  42   1.0000      -0.467920       -12.7327
  43   1.0000      -0.428969       -11.6728
  44   1.0000      -0.428895       -11.6708
  45   1.0000      -0.414583       -11.2814
  46   1.0000      -0.225859        -6.1459
  47   1.0000      -0.225747        -6.1429
  48   0.0000      -0.167359        -4.5541
  49   0.0000      -0.083317        -2.2672
  50   0.0000      -0.083054        -2.2600
  51   0.0000      -0.074743        -2.0338
  52   0.0000      -0.069475        -1.8905

MULLIKEN ATOMIC CHARGES AND SPIN POPULATIONS
--------------------------------------------
   0 Ta:   -0.506845    0.629539
   1 C :    0.269185    0.027280
   2 C :    0.268319    0.026858
   3 C :    0.269223    0.027282
   4 C :    0.268347    0.026863
   5 O :   -0.184704    0.034756
   6 O :   -0.184538    0.034923
   7 O :   -0.184558    0.034919
   8 O :   -0.184707    0.034764
   9 C :    0.270892    0.026788
  10 C :    0.270880    0.026784
  11 O :   -0.185746    0.034621
  12 O :   -0.185748    0.034623
Sum of atomic charges         :   -0.0000000

LOEWDIN ATOMIC CHARGES AND SPIN POPULATIONS
-------------------------------------------
   0 Ta:    0.092109    0.505200
   1 C :    0.097475    0.044300
   2 C :    0.097185    0.043954
   3 C :    0.097470    0.044295
   4 C :    0.097187    0.043960
   5 O :   -0.112447    0.038393
   6 O :   -0.112356    0.038686
   7 O :   -0.112359    0.038682
   8 O :   -0.112452    0.038399
   9 C :    0.096581    0.043772
  10 C :    0.096585    0.043772
  11 O :   -0.112488    0.038293
  12 O :   -0.112491    0.038294

  Mayer bond orders larger than 0.100000
B(  0-Ta,  1-C ) :   0.9278 B(  0-Ta,  2-C ) :   0.9266 B(  0-Ta,  3-C ) :   0.9279
B(  0-Ta,  4-C ) :   0.9267 B(  0-Ta,  9-C ) :   0.9322 B(  0-Ta, 10-C ) :   0.9322
B(  1-C ,  3-C ) :   0.2170 B(  1-C ,  6-O ) :   2.1548 B(  2-C ,  4-C ) :   0.2173
B(  2-C ,  5-O ) :   2.1516 B(  3-C ,  7-O ) :   2.1548 B(  4-C ,  8-O ) :   2.1516
B(  9-C , 10-C ) :   0.2144 B(  9-C , 11-O ) :   2.1571 B( 10-C , 12-O ) :   2.1570

FINAL SINGLE POINT ENERGY      -736.244406461243

DIPOLE MOMENT
-------------
                                X             Y             Z
Electronic contribution:     -0.00021      -0.00208      -0.00011
Nuclear contribution   :      0.00023       0.00206       0.00010
                        -----------------------------------------
Total Dipole Moment    :      0.00003      -0.00002      -0.00001
                        -----------------------------------------
Magnitude (a.u.)       :      0.00004
Magnitude (Debye)      :      0.00009

VIBRATIONAL FREQUENCIES
-----------------------

Scaling factor for frequencies =  1.000000000  (already applied!)

   0:         0.00 cm**-1
   1:         0.00 cm**-1
   2:         0.00 cm**-1
   3:         0.00 cm**-1
   4:         0.00 cm**-1
   5:         0.00 cm**-1
   6:        41.00 cm**-1
   7:        41.21 cm**-1
   8:        59.20 cm**-1
   9:        59.81 cm**-1
  10:        69.95 cm**-1
  11:        70.24 cm**-1
  12:        70.56 cm**-1
  13:        71.11 cm**-1
  14:        71.43 cm**-1
  15:       323.49 cm**-1
  16:       324.07 cm**-1
  17:       326.12 cm**-1
  18:       326.87 cm**-1
  19:       328.89 cm**-1
  20:       335.82 cm**-1
  21:       336.31 cm**-1
  22:       338.35 cm**-1
  23:       376.28 cm**-1
  24:       406.29 cm**-1
  25:       423.81 cm**-1
  26:       424.39 cm**-1
  27:       439.17 cm**-1
  28:       439.60 cm**-1
  29:       465.71 cm**-1
  30:       503.06 cm**-1
  31:       539.47 cm**-1
  32:       539.69 cm**-1
  33:      2054.89 cm**-1
  34:      2055.10 cm**-1
  35:      2060.91 cm**-1
  36:      2061.10 cm**-1
  37:      2061.23 cm**-1
  38:      2181.06 cm**-1

IR SPECTRUM
-----------

 Mode   freq       eps      Int      T**2         TX        TY        TZ
       cm**-1   L/(mol*cm) km/mol    a.u.
----------------------------------------------------------------------------
  6:     41.00   0.000052    0.26  0.000398  (-0.014113 -0.002063  0.013961)
  7:     41.21   0.000051    0.26  0.000384  ( 0.008255 -0.016497  0.006576)
  8:     59.20   0.000000    0.00  0.000001  (-0.001010 -0.000217 -0.000556)
  9:     59.81   0.000197    0.99  0.001026  (-0.018094 -0.017605 -0.019707)
 10:     69.95   0.000000    0.00  0.000000  ( 0.000057 -0.000074  0.000020)
 11:     70.24   0.000000    0.00  0.000000  (-0.000081 -0.000015  0.000098)
 12:     70.56   0.000000    0.00  0.000000  (-0.000049 -0.000034  0.000073)
 13:     71.11   0.000287    1.45  0.001257  (-0.028635  0.018208  0.010296)
 14:     71.43   0.000282    1.43  0.001233  (-0.005397 -0.023231  0.025766)
 15:    323.49   0.000000    0.00  0.000000  (-0.000058  0.000036  0.000015)
 16:    324.07   0.000000    0.00  0.000000  ( 0.000017 -0.000006  0.000016)
 17:    326.12   0.011177   56.48  0.010695  (-0.076674  0.069083  0.006598)
 18:    326.87   0.011122   56.20  0.010618  (-0.048237 -0.060623  0.067940)
 19:    328.89   0.007934   40.09  0.007528  (-0.038216 -0.036288 -0.068926)
 20:    335.82   0.000000    0.00  0.000000  ( 0.000020 -0.000024 -0.000014)
 21:    336.31   0.000000    0.00  0.000000  ( 0.000014  0.000016 -0.000012)
 22:    338.35   0.000000    0.00  0.000000  ( 0.000011 -0.000002  0.000002)
 23:    376.28   0.000000    0.00  0.000000  ( 0.000000 -0.000001  0.000002)
 24:    406.29   0.000000    0.00  0.000000  ( 0.000007 -0.000005 -0.000001)
 25:    423.81   0.000000    0.00  0.000000  (-0.000004  0.000002 -0.000001)
 26:    424.39   0.000000    0.00  0.000000  (-0.000002  0.000006  0.000001)
 27:    439.17   0.000074    0.37  0.000052  ( 0.005418 -0.003060 -0.003681)
 28:    439.60   0.000078    0.40  0.000056  ( 0.000160  0.005333 -0.005202)
 29:    465.71   0.007858   39.71  0.005265  (-0.041445 -0.039396 -0.044672)
 30:    503.06   0.000005    0.02  0.000003  ( 0.001051 -0.001212  0.000602)
 31:    539.47   0.009443   47.72  0.005463  ( 0.060147 -0.031528 -0.029169)
 32:    539.69   0.009089   45.93  0.005255  (-0.002587 -0.052685  0.049728)
 33:   2054.89   0.000001    0.01  0.000000  ( 0.000251 -0.000125  0.000377)
 34:   2055.10   0.000002    0.01  0.000000  ( 0.000146 -0.000454 -0.000356)
 35:   2060.91   0.457272  2310.86  0.069240  (-0.044391  0.221921  0.134241)
 36:   2061.10   0.489372  2473.08  0.074094  (-0.121590  0.129423 -0.206300)
 37:   2061.23   0.494897  2501.01  0.074926  (-0.236907 -0.086437  0.106441)
 38:   2181.06   0.000000    0.00  0.000000  (-0.000010 -0.000021  0.000018)

--------------------------
THERMOCHEMISTRY AT 298.15K
--------------------------

Temperature         ... 298.15 K
Pressure            ... 1.00 atm
Total Mass          ... 349.01 AMU

Throughout the following assumptions are being made:
  (1) The electronic state is orbitally nondegenerate
      but the spin degeneracy is treated
  (2) There are no thermally accessible electronically excited states
  (3) Hindered rotations indicated by low frequency modes are not
      treated as such but are treated as vibrations and this may
      cause some error
  (4) All equations used are the standard statistical mechanics
      equations for an ideal gas
  (5) All vibrations are strictly harmonic

freq.      41.00  E(vib)   ...       0.54
freq.      41.21  E(vib)   ...       0.54
freq.      59.20  E(vib)   ...       0.51
freq.      59.81  E(vib)   ...       0.51
freq.      69.95  E(vib)   ...       0.50
freq.      70.24  E(vib)   ...       0.50
freq.      70.56  E(vib)   ...       0.50
freq.      71.11  E(vib)   ...       0.50
freq.      71.43  E(vib)   ...       0.50
freq.     323.49  E(vib)   ...       0.25
freq.     324.07  E(vib)   ...       0.25
freq.     326.12  E(vib)   ...       0.24
freq.     326.87  E(vib)   ...       0.24
freq.     328.89  E(vib)   ...       0.24
freq.     335.82  E(vib)   ...       0.24
freq.     336.31  E(vib)   ...       0.24
freq.     338.35  E(vib)   ...       0.23
freq.     376.28  E(vib)   ...       0.21
freq.     406.29  E(vib)   ...       0.19
freq.     423.81  E(vib)   ...       0.18
freq.     424.39  E(vib)   ...       0.18
freq.     439.17  E(vib)   ...       0.17
freq.     439.60  E(vib)   ...       0.17
freq.     465.71  E(vib)   ...       0.16
freq.     503.06  E(vib)   ...       0.14
freq.     539.47  E(vib)   ...       0.12
freq.     539.69  E(vib)   ...       0.12
freq.    2054.89  E(vib)   ...       0.00
freq.    2055.10  E(vib)   ...       0.00
freq.    2060.91  E(vib)   ...       0.00
freq.    2061.10  E(vib)   ...       0.00
freq.    2061.23  E(vib)   ...       0.00
freq.    2181.06  E(vib)   ...       0.00

------------
INNER ENERGY
------------

The inner energy is: U= E(el) + E(ZPE) + E(vib) + E(rot) + E(trans)
    E(el)   - is the total energy from the electronic structure calculation
              = E(kin-el) + E(nuc-el) + E(el-el) + E(nuc-nuc)
    E(ZPE)  - the the zero temperature vibrational energy from the frequency calculation
    E(vib)  - the the finite temperature correction to E(ZPE) due to population
              of excited vibrational states
    E(rot)  - is the rotational thermal energy
    E(trans)- is the translational thermal energy

Summary of contributions to the inner energy U:
Electronic energy                ...   -736.24440646 Eh
Zero point energy                ...      0.04607863 Eh      28.91 kcal/mol
Thermal vibrational correction   ...      0.01299563 Eh       8.15 kcal/mol
Thermal rotational correction    ...      0.00141627 Eh       0.89 kcal/mol
Thermal translational correction ...      0.00141627 Eh       0.89 kcal/mol
-----------------------------------------------------------------------
Total thermal energy                   -736.18249965 Eh

Summary of corrections to the electronic energy:
(perhaps to be used in another calculation)
Total thermal correction                  0.01582818 Eh       9.93 kcal/mol
Non-thermal (ZPE) correction              0.04607863 Eh      28.91 kcal/mol
-----------------------------------------------------------------------
Total correction                          0.06190681 Eh      38.85 kcal/mol

--------
ENTHALPY
--------

The enthalpy is H = U + kB*T
                kB is Boltzmann's constant
Total free energy                 ...   -736.18249965 Eh
Thermal Enthalpy correction       ...      0.00094421 Eh       0.59 kcal/mol
-----------------------------------------------------------------------
Total Enthalpy                    ...   -736.18155544 Eh

Note: Only C1 symmetry has been detected, increase convergence thresholds
      if your molecule has a higher symmetry. Symmetry factor of 1.0 is
      used for the rotational entropy correction.

Note: Rotational entropy computed according to Herzberg
Infrared and Raman Spectra, Chapter V,1, Van Nostrand Reinhold, 1945
Point Group:  C1, Symmetry Number:   1
Rotational constants in cm-1:     0.018911     0.018827     0.016620

Vibrational entropy computed according to the QRRHO of S. Grimme
Chem.Eur.J. 2012 18 9955

-------
ENTROPY
-------

The entropy contributions are T*S = T*(S(el)+S(vib)+S(rot)+S(trans))
     S(el)   - electronic entropy
     S(vib)  - vibrational entropy
     S(rot)  - rotational entropy
     S(trans)- translational entropy
The entropies will be listed as multiplied by the temperature to get
units of energy

Electronic entropy                ...      0.00065446 Eh      0.41 kcal/mol
Vibrational entropy               ...      0.02354363 Eh     14.77 kcal/mol
Rotational entropy                ...      0.01519365 Eh      9.53 kcal/mol
Translational entropy             ...      0.02064147 Eh     12.95 kcal/mol
-----------------------------------------------------------------------
Final entropy term                ...      0.06003320 Eh     37.67 kcal/mol

In case the symmetry of your molecule has not been determined correctly
or in case you have a reason to use a different symmetry number we print
out the resulting rotational entropy values for sn=1,12 :
 --------------------------------------------------------
|  sn= 1 | S(rot)=       0.01519365 Eh      9.53 kcal/mol|
|  sn= 2 | S(rot)=       0.01453919 Eh      9.12 kcal/mol|
|  sn= 3 | S(rot)=       0.01415636 Eh      8.88 kcal/mol|
|  sn= 4 | S(rot)=       0.01388473 Eh      8.71 kcal/mol|
|  sn= 5 | S(rot)=       0.01367405 Eh      8.58 kcal/mol|
|  sn= 6 | S(rot)=       0.01350190 Eh      8.47 kcal/mol|
|  sn= 7 | S(rot)=       0.01335636 Eh      8.38 kcal/mol|
|  sn= 8 | S(rot)=       0.01323028 Eh      8.30 kcal/mol|
|  sn= 9 | S(rot)=       0.01311907 Eh      8.23 kcal/mol|
|  sn=10 | S(rot)=       0.01301959 Eh      8.17 kcal/mol|
|  sn=11 | S(rot)=       0.01292960 Eh      8.11 kcal/mol|
|  sn=12 | S(rot)=       0.01284745 Eh      8.06 kcal/mol|
 --------------------------------------------------------

-------------------
GIBBS FREE ENERGY
-------------------

The Gibbs free energy is G = H - T*S

Total enthalpy                    ...   -736.18155544 Eh
Total entropy correction          ...     -0.06003320 Eh    -37.67 kcal/mol
-----------------------------------------------------------------------
Final Gibbs free energy         ...   -736.24158865 Eh

For completeness - the Gibbs free energy minus the electronic energy
G-E(el)                           ...      0.00281782 Eh      1.77 kcal/mol

                             ****ORCA TERMINATED NORMALLY****
TOTAL RUN TIME: 0 days 0 hours 20 minutes 45 seconds 603 msec
