                         Program Version 5.0.4 -  RELEASE  -
|  1> !B3LYP def2-SVPD OPT FREQ TightSCF PAL8
|  2>
|  3> %scf
|  4>   MaxIter 300
|  5> end
|  6>
|  7> * xyz -1 1
|  8> Ta         0.27389        0.93013        0.02870
|  9> C          2.48952        0.92813        0.05974
| 10> C          0.27413        3.14227        0.15631
| 11> C         -1.94181        0.93257       -0.00228
| 12> C          0.27335       -1.28214       -0.09889
| 13> O          0.27421        4.26850        0.22072
| 14> O          3.61744        0.92722        0.07540
| 15> O         -3.06965        0.93392       -0.01792
| 16> O          0.27303       -2.40821       -0.16332
| 17> C          0.30585        1.06042       -2.18307
| 18> C          0.24221        0.79935        2.24054
| 19> O          0.32231        1.12721       -3.30901
| 20> O          0.22601        0.73218        3.36636
| 21> **                         ****END OF INPUT****
 Total Charge           Charge          ....   -1
 Multiplicity           Mult            ....    1
 Number of Electrons    NEL             ....   98
FINAL SINGLE POINT ENERGY      -736.335668196614
FINAL SINGLE POINT ENERGY      -736.356685228913
FINAL SINGLE POINT ENERGY      -736.357681501191
FINAL SINGLE POINT ENERGY      -736.357682026707
FINAL SINGLE POINT ENERGY      -736.357688493338
                    ***********************HURRAY********************

CARTESIAN COORDINATES (ANGSTROEM)
---------------------------------
  Ta     0.273879    0.930100    0.028719
  C      2.417344    0.928097    0.058891
  C      0.274184    3.070178    0.153001
  C     -1.869586    0.932382   -0.001446
  C      0.273428   -1.209979   -0.095580
  O      0.274295    4.229687    0.220424
  O      3.578690    0.927086    0.075412
  O     -3.030932    0.933743   -0.017959
  O      0.273149   -2.369485   -0.163029
  C      0.304401    1.055023   -2.111078
  C      0.243520    0.804963    2.168507
  O      0.321199    1.123438   -3.270406
  O      0.226920    0.736318    3.327824

 Multiplicity           Mult            ....    1
 Number of Electrons    NEL             ....   98
 Basis Dimension        Dim             ....  293

ORBITAL ENERGIES
----------------

  NO   OCC          E(Eh)            E(eV)
   0   2.0000     -19.076048      -519.0857
   1   2.0000     -19.076046      -519.0856
   2   2.0000     -19.075984      -519.0839
   3   2.0000     -19.075981      -519.0838
   4   2.0000     -19.075980      -519.0838
   5   2.0000     -19.075977      -519.0837
   6   2.0000     -10.152421      -276.2614
   7   2.0000     -10.152419      -276.2614
   8   2.0000     -10.152380      -276.2603
   9   2.0000     -10.152380      -276.2603
  10   2.0000     -10.152376      -276.2602
  11   2.0000     -10.152188      -276.2551
  12   2.0000      -2.517382       -68.5014
  13   2.0000      -1.268470       -34.5168
  14   2.0000      -1.268464       -34.5167
  15   2.0000      -1.268460       -34.5165
  16   2.0000      -0.974933       -26.5293
  17   2.0000      -0.974388       -26.5144
  18   2.0000      -0.974384       -26.5143
  19   2.0000      -0.974381       -26.5143
  20   2.0000      -0.974318       -26.5125
  21   2.0000      -0.974315       -26.5125
  22   2.0000      -0.440148       -11.9770
  23   2.0000      -0.418188       -11.3795
  24   2.0000      -0.418187       -11.3795
  25   2.0000      -0.414940       -11.2911
  26   2.0000      -0.414938       -11.2910
  27   2.0000      -0.414932       -11.2909
  28   2.0000      -0.344580        -9.3765
  29   2.0000      -0.321808        -8.7568
  30   2.0000      -0.321801        -8.7567
  31   2.0000      -0.321800        -8.7566
  32   2.0000      -0.316310        -8.6072
  33   2.0000      -0.316303        -8.6070
  34   2.0000      -0.316297        -8.6069
  35   2.0000      -0.311112        -8.4658
  36   2.0000      -0.311105        -8.4656
  37   2.0000      -0.311102        -8.4655
  38   2.0000      -0.306946        -8.3524
  39   2.0000      -0.306945        -8.3524
  40   2.0000      -0.306944        -8.3524
  41   2.0000      -0.301327        -8.1995
  42   2.0000      -0.301316        -8.1992
  43   2.0000      -0.251544        -6.8449
  44   2.0000      -0.251529        -6.8444
  45   2.0000      -0.251513        -6.8440
  46   2.0000      -0.058481        -1.5914
  47   2.0000      -0.058462        -1.5908
  48   2.0000      -0.058450        -1.5905
  49   0.0000       0.077284         2.1030
  50   0.0000       0.077299         2.1034
  51   0.0000       0.077309         2.1037
  52   0.0000       0.100126         2.7246
  53   0.0000       0.100142         2.7250

MULLIKEN ATOMIC CHARGES
-----------------------
   0 Ta:   -0.925118
   1 C :    0.252081
   2 C :    0.251950
   3 C :    0.252035
   4 C :    0.251954
   5 O :   -0.264644
   6 O :   -0.264082
   7 O :   -0.264067
   8 O :   -0.264642
   9 C :    0.251961
  10 C :    0.251953
  11 O :   -0.264691
  12 O :   -0.264688
Sum of atomic charges:   -1.0000000

LOEWDIN ATOMIC CHARGES
----------------------
   0 Ta:   -0.093820
   1 C :    0.048013
   2 C :    0.047994
   3 C :    0.048014
   4 C :    0.047996
   5 O :   -0.199028
   6 O :   -0.199025
   7 O :   -0.199024
   8 O :   -0.199029
   9 C :    0.047983
  10 C :    0.047984
  11 O :   -0.199029
  12 O :   -0.199029

  Mayer bond orders larger than 0.100000
B(  0-Ta,  1-C ) :   1.0498 B(  0-Ta,  2-C ) :   1.0484 B(  0-Ta,  3-C ) :   1.0498
B(  0-Ta,  4-C ) :   1.0485 B(  0-Ta,  9-C ) :   1.0484 B(  0-Ta, 10-C ) :   1.0484
B(  1-C ,  3-C ) :   0.2457 B(  1-C ,  6-O ) :   2.0168 B(  2-C ,  4-C ) :   0.2451
B(  2-C ,  5-O ) :   2.0160 B(  3-C ,  7-O ) :   2.0168 B(  4-C ,  8-O ) :   2.0160
B(  9-C , 10-C ) :   0.2451 B(  9-C , 11-O ) :   2.0160 B( 10-C , 12-O ) :   2.0160

FINAL SINGLE POINT ENERGY      -736.357688536875

DIPOLE MOMENT
-------------
                                X             Y             Z
Electronic contribution:     -0.00043      -0.00163       0.00047
Nuclear contribution   :      0.00041       0.00158      -0.00045
                        -----------------------------------------
Total Dipole Moment    :     -0.00002      -0.00005       0.00002
                        -----------------------------------------
Magnitude (a.u.)       :      0.00006
Magnitude (Debye)      :      0.00015

VIBRATIONAL FREQUENCIES
-----------------------

Scaling factor for frequencies =  1.000000000  (already applied!)

   0:         0.00 cm**-1
   1:         0.00 cm**-1
   2:         0.00 cm**-1
   3:         0.00 cm**-1
   4:         0.00 cm**-1
   5:         0.00 cm**-1
   6:        40.77 cm**-1
   7:        40.93 cm**-1
   8:        40.99 cm**-1
   9:        65.73 cm**-1
  10:        65.77 cm**-1
  11:        65.81 cm**-1
  12:        73.16 cm**-1
  13:        73.26 cm**-1
  14:        73.34 cm**-1
  15:       350.81 cm**-1
  16:       350.89 cm**-1
  17:       351.18 cm**-1
  18:       363.05 cm**-1
  19:       363.06 cm**-1
  20:       363.08 cm**-1
  21:       384.52 cm**-1
  22:       384.55 cm**-1
  23:       396.90 cm**-1
  24:       451.30 cm**-1
  25:       451.31 cm**-1
  26:       451.35 cm**-1
  27:       503.14 cm**-1
  28:       503.18 cm**-1
  29:       503.19 cm**-1
  30:       563.11 cm**-1
  31:       563.16 cm**-1
  32:       563.17 cm**-1
  33:      1952.90 cm**-1
  34:      1952.93 cm**-1
  35:      1952.93 cm**-1
  36:      1974.98 cm**-1
  37:      1974.99 cm**-1
  38:      2097.44 cm**-1

IR SPECTRUM
-----------

 Mode   freq       eps      Int      T**2         TX        TY        TZ
       cm**-1   L/(mol*cm) km/mol    a.u.
----------------------------------------------------------------------------
  6:     40.77   0.000000    0.00  0.000000  ( 0.000077 -0.000117  0.000134)
  7:     40.93   0.000000    0.00  0.000000  ( 0.000071  0.000269  0.000089)
  8:     40.99   0.000000    0.00  0.000000  ( 0.000059 -0.000026 -0.000377)
  9:     65.73   0.000345    1.75  0.001640  ( 0.028680  0.028246 -0.004430)
 10:     65.77   0.000345    1.75  0.001639  (-0.023688  0.027039  0.018625)
 11:     65.81   0.000346    1.75  0.001641  ( 0.015937 -0.010602  0.035703)
 12:     73.16   0.000000    0.00  0.000000  ( 0.000001 -0.000007  0.000004)
 13:     73.26   0.000000    0.00  0.000000  (-0.000011 -0.000000  0.000000)
 14:     73.34   0.000000    0.00  0.000000  (-0.000007  0.000000  0.000004)
 15:    350.81   0.000000    0.00  0.000000  ( 0.000004 -0.000005 -0.000000)
 16:    350.89   0.000000    0.00  0.000000  ( 0.000004 -0.000000  0.000002)
 17:    351.18   0.000000    0.00  0.000000  (-0.000000  0.000003  0.000011)
 18:    363.05   0.007281   36.80  0.006259  ( 0.008775  0.074329  0.025634)
 19:    363.06   0.007291   36.85  0.006267  ( 0.078091 -0.011383  0.006254)
 20:    363.08   0.007288   36.83  0.006264  ( 0.009590  0.024664 -0.074590)
 21:    384.52   0.000000    0.00  0.000000  ( 0.000004  0.000015  0.000001)
 22:    384.55   0.000000    0.00  0.000000  ( 0.000013 -0.000015  0.000001)
 23:    396.90   0.000000    0.00  0.000000  (-0.000001 -0.000003  0.000000)
 24:    451.30   0.000000    0.00  0.000000  (-0.000015  0.000006 -0.000000)
 25:    451.31   0.000000    0.00  0.000000  ( 0.000006 -0.000004 -0.000003)
 26:    451.35   0.000000    0.00  0.000000  ( 0.000000  0.000000 -0.000011)
 27:    503.14   0.000000    0.00  0.000000  ( 0.000018 -0.000032 -0.000037)
 28:    503.18   0.000000    0.00  0.000000  (-0.000021 -0.000042 -0.000071)
 29:    503.19   0.000000    0.00  0.000000  (-0.000028  0.000018 -0.000056)
 30:    563.11   0.009450   47.75  0.005237  (-0.069703 -0.019423 -0.001028)
 31:    563.16   0.009458   47.80  0.005241  (-0.010362  0.034018  0.063058)
 32:    563.17   0.009437   47.69  0.005229  (-0.016454  0.060824 -0.035480)
 33:   1952.90   0.645669  3262.95  0.103175  (-0.006280 -0.246832 -0.205448)
 34:   1952.93   0.646219  3265.73  0.103261  ( 0.063183 -0.202545  0.241339)
 35:   1952.93   0.645980  3264.52  0.103223  ( 0.314939  0.035714 -0.052543)
 36:   1974.98   0.000000    0.00  0.000000  ( 0.000039 -0.000000  0.000005)
 37:   1974.99   0.000000    0.00  0.000000  (-0.000020  0.000070  0.000001)
 38:   2097.44   0.000000    0.00  0.000000  (-0.000001 -0.000003  0.000001)

--------------------------
THERMOCHEMISTRY AT 298.15K
--------------------------

Temperature         ... 298.15 K
Pressure            ... 1.00 atm
Total Mass          ... 349.01 AMU

Throughout the following assumptions are being made:
  (1) The electronic state is orbitally nondegenerate
  (2) There are no thermally accessible electronically excited states
  (3) Hindered rotations indicated by low frequency modes are not
      treated as such but are treated as vibrations and this may
      cause some error
  (4) All equations used are the standard statistical mechanics
      equations for an ideal gas
  (5) All vibrations are strictly harmonic

freq.      40.77  E(vib)   ...       0.54
freq.      40.93  E(vib)   ...       0.54
freq.      40.99  E(vib)   ...       0.54
freq.      65.73  E(vib)   ...       0.50
freq.      65.77  E(vib)   ...       0.50
freq.      65.81  E(vib)   ...       0.50
freq.      73.16  E(vib)   ...       0.49
freq.      73.26  E(vib)   ...       0.49
freq.      73.34  E(vib)   ...       0.49
freq.     350.81  E(vib)   ...       0.23
freq.     350.89  E(vib)   ...       0.23
freq.     351.18  E(vib)   ...       0.23
freq.     363.05  E(vib)   ...       0.22
freq.     363.06  E(vib)   ...       0.22
freq.     363.08  E(vib)   ...       0.22
freq.     384.52  E(vib)   ...       0.20
freq.     384.55  E(vib)   ...       0.20
freq.     396.90  E(vib)   ...       0.20
freq.     451.30  E(vib)   ...       0.16
freq.     451.31  E(vib)   ...       0.16
freq.     451.35  E(vib)   ...       0.16
freq.     503.14  E(vib)   ...       0.14
freq.     503.18  E(vib)   ...       0.14
freq.     503.19  E(vib)   ...       0.14
freq.     563.11  E(vib)   ...       0.11
freq.     563.16  E(vib)   ...       0.11
freq.     563.17  E(vib)   ...       0.11
freq.    1952.90  E(vib)   ...       0.00
freq.    1952.93  E(vib)   ...       0.00
freq.    1952.93  E(vib)   ...       0.00
freq.    1974.98  E(vib)   ...       0.00
freq.    1974.99  E(vib)   ...       0.00
freq.    2097.44  E(vib)   ...       0.00

------------
INNER ENERGY
------------

The inner energy is: U= E(el) + E(ZPE) + E(vib) + E(rot) + E(trans)
    E(el)   - is the total energy from the electronic structure calculation
              = E(kin-el) + E(nuc-el) + E(el-el) + E(nuc-nuc)
    E(ZPE)  - the the zero temperature vibrational energy from the frequency calculation
    E(vib)  - the the finite temperature correction to E(ZPE) due to population
              of excited vibrational states
    E(rot)  - is the rotational thermal energy
    E(trans)- is the translational thermal energy

Summary of contributions to the inner energy U:
Electronic energy                ...   -736.35768854 Eh
Zero point energy                ...      0.04626253 Eh      29.03 kcal/mol
Thermal vibrational correction   ...      0.01241605 Eh       7.79 kcal/mol
Thermal rotational correction    ...      0.00141627 Eh       0.89 kcal/mol
Thermal translational correction ...      0.00141627 Eh       0.89 kcal/mol
-----------------------------------------------------------------------
Total thermal energy                   -736.29617742 Eh

Summary of corrections to the electronic energy:
(perhaps to be used in another calculation)
Total thermal correction                  0.01524859 Eh       9.57 kcal/mol
Non-thermal (ZPE) correction              0.04626253 Eh      29.03 kcal/mol
-----------------------------------------------------------------------
Total correction                          0.06151112 Eh      38.60 kcal/mol

--------
ENTHALPY
--------

The enthalpy is H = U + kB*T
                kB is Boltzmann's constant
Total free energy                 ...   -736.29617742 Eh
Thermal Enthalpy correction       ...      0.00094421 Eh       0.59 kcal/mol
-----------------------------------------------------------------------
Total Enthalpy                    ...   -736.29523321 Eh

Note: Only C1 symmetry has been detected, increase convergence thresholds
      if your molecule has a higher symmetry. Symmetry factor of 1.0 is
      used for the rotational entropy correction.

Note: Rotational entropy computed according to Herzberg
Infrared and Raman Spectra, Chapter V,1, Van Nostrand Reinhold, 1945
Point Group:  C1, Symmetry Number:   1
Rotational constants in cm-1:     0.018331     0.018326     0.018321

Vibrational entropy computed according to the QRRHO of S. Grimme
Chem.Eur.J. 2012 18 9955

-------
ENTROPY
-------

The entropy contributions are T*S = T*(S(el)+S(vib)+S(rot)+S(trans))
     S(el)   - electronic entropy
     S(vib)  - vibrational entropy
     S(rot)  - rotational entropy
     S(trans)- translational entropy
The entropies will be listed as multiplied by the temperature to get
units of energy

Electronic entropy                ...      0.00000000 Eh      0.00 kcal/mol
Vibrational entropy               ...      0.02256248 Eh     14.16 kcal/mol
Rotational entropy                ...      0.01517508 Eh      9.52 kcal/mol
Translational entropy             ...      0.02064147 Eh     12.95 kcal/mol
-----------------------------------------------------------------------
Final entropy term                ...      0.05837904 Eh     36.63 kcal/mol

In case the symmetry of your molecule has not been determined correctly
or in case you have a reason to use a different symmetry number we print
out the resulting rotational entropy values for sn=1,12 :
 --------------------------------------------------------
|  sn= 1 | S(rot)=       0.01517508 Eh      9.52 kcal/mol|
|  sn= 2 | S(rot)=       0.01452063 Eh      9.11 kcal/mol|
|  sn= 3 | S(rot)=       0.01413779 Eh      8.87 kcal/mol|
|  sn= 4 | S(rot)=       0.01386617 Eh      8.70 kcal/mol|
|  sn= 5 | S(rot)=       0.01365548 Eh      8.57 kcal/mol|
|  sn= 6 | S(rot)=       0.01348334 Eh      8.46 kcal/mol|
|  sn= 7 | S(rot)=       0.01333779 Eh      8.37 kcal/mol|
|  sn= 8 | S(rot)=       0.01321171 Eh      8.29 kcal/mol|
|  sn= 9 | S(rot)=       0.01310050 Eh      8.22 kcal/mol|
|  sn=10 | S(rot)=       0.01300102 Eh      8.16 kcal/mol|
|  sn=11 | S(rot)=       0.01291103 Eh      8.10 kcal/mol|
|  sn=12 | S(rot)=       0.01282888 Eh      8.05 kcal/mol|
 --------------------------------------------------------

-------------------
GIBBS FREE ENERGY
-------------------

The Gibbs free energy is G = H - T*S

Total enthalpy                    ...   -736.29523321 Eh
Total entropy correction          ...     -0.05837904 Eh    -36.63 kcal/mol
-----------------------------------------------------------------------
Final Gibbs free energy         ...   -736.35361224 Eh

For completeness - the Gibbs free energy minus the electronic energy
G-E(el)                           ...      0.00407629 Eh      2.56 kcal/mol

                             ****ORCA TERMINATED NORMALLY****
TOTAL RUN TIME: 0 days 0 hours 11 minutes 6 seconds 352 msec
