                         Program Version 5.0.4 -  RELEASE  -
|  1> !B3LYP def2-SVPD OPT FREQ TightSCF PAL8
|  2>
|  3> %scf
|  4>   MaxIter 300
|  5> end
|  6>
|  7> * xyz -1 2
|  8> W         -1.37621        2.56722        0.10711
|  9> C          0.70839        2.53117        0.30993
| 10> C         -1.33834        4.66140        0.07376
| 11> C         -3.46098        2.60316       -0.09572
| 12> C         -1.41502        0.47296        0.14051
| 13> C         -1.57994        2.60535        2.19168
| 14> C         -1.17198        2.52910       -1.97739
| 15> O         -1.68985        2.62619        3.31419
| 16> O         -1.43573       -0.65466        0.15820
| 17> O         -1.31832        5.78914        0.05603
| 18> O         -1.06136        2.50831       -3.09969
| 19> O         -4.58356        2.62277       -0.20455
| 20> O          1.83095        2.51149        0.41866
| 21> **                         ****END OF INPUT****
 Total Charge           Charge          ....   -1
 Multiplicity           Mult            ....    2
 Number of Electrons    NEL             ....   99
FINAL SINGLE POINT ENERGY      -746.401688100536
FINAL SINGLE POINT ENERGY      -746.418445934129
FINAL SINGLE POINT ENERGY      -746.419509168718
FINAL SINGLE POINT ENERGY      -746.420010771129
FINAL SINGLE POINT ENERGY      -746.420437079725
FINAL SINGLE POINT ENERGY      -746.420618149109
FINAL SINGLE POINT ENERGY      -746.420675056881
FINAL SINGLE POINT ENERGY      -746.420701578706
FINAL SINGLE POINT ENERGY      -746.420733367099
FINAL SINGLE POINT ENERGY      -746.420744914697
FINAL SINGLE POINT ENERGY      -746.420747824269
                    ***********************HURRAY********************

CARTESIAN COORDINATES (ANGSTROEM)
---------------------------------
  W     -1.375799    2.567253    0.107771
  C      0.705657    2.487795    0.226646
  C     -1.387544    4.647229    0.111367
  C     -3.458075    2.647697   -0.008918
  C     -1.367252    0.487235    0.099679
  C     -1.662080    2.648191    2.172993
  C     -1.087712    2.485151   -1.957859
  O     -1.911838    2.743562    3.306622
  O     -1.315587   -0.675326    0.052614
  O     -1.444790    5.809811    0.150742
  O     -0.834711    2.387881   -3.090639
  O     -4.618369    2.744826    0.021020
  O      1.866149    2.392294    0.200682

 Multiplicity           Mult            ....    2
 Number of Electrons    NEL             ....   99
 Basis Dimension        Dim             ....  293

ORBITAL ENERGIES
----------------
                 SPIN UP ORBITALS
  NO   OCC          E(Eh)            E(eV)
   0   1.0000     -19.074458      -519.0424
   1   1.0000     -19.074411      -519.0411
   2   1.0000     -19.073355      -519.0124
   3   1.0000     -19.073328      -519.0116
   4   1.0000     -19.073289      -519.0106
   5   1.0000     -19.073261      -519.0098
   6   1.0000     -10.153673      -276.2955
   7   1.0000     -10.153635      -276.2945
   8   1.0000     -10.151878      -276.2467
   9   1.0000     -10.151829      -276.2453
  10   1.0000     -10.151796      -276.2444
  11   1.0000     -10.151684      -276.2414
  12   1.0000      -2.804923       -76.3258
  13   1.0000      -1.455470       -39.6054
  14   1.0000      -1.453784       -39.5595
  15   1.0000      -1.452403       -39.5219
  16   1.0000      -0.972833       -26.4721
  17   1.0000      -0.972540       -26.4642
  18   1.0000      -0.971668       -26.4404
  19   1.0000      -0.971538       -26.4369
  20   1.0000      -0.971179       -26.4271
  21   1.0000      -0.971159       -26.4266
  22   1.0000      -0.455017       -12.3816
  23   1.0000      -0.422357       -11.4929
  24   1.0000      -0.421342       -11.4653
  25   1.0000      -0.417861       -11.3706
  26   1.0000      -0.415834       -11.3154
  27   1.0000      -0.414369       -11.2755
  28   1.0000      -0.356080        -9.6894
  29   1.0000      -0.328394        -8.9361
  30   1.0000      -0.326466        -8.8836
  31   1.0000      -0.324182        -8.8215
  32   1.0000      -0.323622        -8.8062
  33   1.0000      -0.321007        -8.7351
  34   1.0000      -0.320705        -8.7268
  35   1.0000      -0.316699        -8.6178
  36   1.0000      -0.316578        -8.6145
  37   1.0000      -0.313789        -8.5386
  38   1.0000      -0.311530        -8.4772
  39   1.0000      -0.307594        -8.3701
  40   1.0000      -0.306510        -8.3406
  41   1.0000      -0.306345        -8.3361
  42   1.0000      -0.304187        -8.2773
  43   1.0000      -0.265189        -7.2161
  44   1.0000      -0.258965        -7.0468
  45   1.0000      -0.256306        -6.9744
  46   1.0000      -0.100277        -2.7287
  47   1.0000      -0.092849        -2.5265
  48   1.0000      -0.090594        -2.4652
  49   1.0000       0.027344         0.7441
  50   0.0000       0.076961         2.0942
  51   0.0000       0.077528         2.1097
  52   0.0000       0.086746         2.3605
  53   0.0000       0.092602         2.5198
  54   0.0000       0.104848         2.8531

                 SPIN DOWN ORBITALS
  NO   OCC          E(Eh)            E(eV)
   0   1.0000     -19.072920      -519.0005
   1   1.0000     -19.072873      -518.9993
   2   1.0000     -19.071771      -518.9693
   3   1.0000     -19.071743      -518.9685
   4   1.0000     -19.071693      -518.9671
   5   1.0000     -19.071665      -518.9664
   6   1.0000     -10.151680      -276.2413
   7   1.0000     -10.151641      -276.2402
   8   1.0000     -10.149536      -276.1829
   9   1.0000     -10.149486      -276.1815
  10   1.0000     -10.149436      -276.1802
  11   1.0000     -10.149331      -276.1773
  12   1.0000      -2.807561       -76.3976
  13   1.0000      -1.458892       -39.6985
  14   1.0000      -1.456724       -39.6395
  15   1.0000      -1.455847       -39.6156
  16   1.0000      -0.969981       -26.3945
  17   1.0000      -0.969717       -26.3873
  18   1.0000      -0.968744       -26.3609
  19   1.0000      -0.968602       -26.3570
  20   1.0000      -0.968250       -26.3474
  21   1.0000      -0.968222       -26.3467
  22   1.0000      -0.448766       -12.2116
  23   1.0000      -0.417470       -11.3599
  24   1.0000      -0.416110       -11.3229
  25   1.0000      -0.413222       -11.2443
  26   1.0000      -0.411254       -11.1908
  27   1.0000      -0.409638       -11.1468
  28   1.0000      -0.353214        -9.6114
  29   1.0000      -0.323455        -8.8017
  30   1.0000      -0.322223        -8.7681
  31   1.0000      -0.318920        -8.6782
  32   1.0000      -0.315630        -8.5887
  33   1.0000      -0.314655        -8.5622
  34   1.0000      -0.314222        -8.5504
  35   1.0000      -0.314153        -8.5485
  36   1.0000      -0.313980        -8.5438
  37   1.0000      -0.306353        -8.3363
  38   1.0000      -0.303825        -8.2675
  39   1.0000      -0.302876        -8.2417
  40   1.0000      -0.301761        -8.2113
  41   1.0000      -0.299521        -8.1504
  42   1.0000      -0.297297        -8.0899
  43   1.0000      -0.257251        -7.0002
  44   1.0000      -0.253093        -6.8870
  45   1.0000      -0.249708        -6.7949
  46   1.0000      -0.092367        -2.5134
  47   1.0000      -0.090245        -2.4557
  48   1.0000      -0.089183        -2.4268
  49   0.0000       0.079527         2.1640
  50   0.0000       0.080513         2.1909
  51   0.0000       0.082358         2.2411
  52   0.0000       0.104291         2.8379
  53   0.0000       0.105238         2.8637

MULLIKEN ATOMIC CHARGES AND SPIN POPULATIONS
--------------------------------------------
   0 W :   -2.321475    0.051574
   1 C :    0.520024    0.111034
   2 C :    0.508320    0.131189
   3 C :    0.520204    0.111860
   4 C :    0.508347    0.131198
   5 C :    0.524413    0.111776
   6 C :    0.524475    0.112610
   7 O :   -0.297989    0.041409
   8 O :   -0.297981    0.035976
   9 O :   -0.297951    0.035926
  10 O :   -0.298457    0.041977
  11 O :   -0.296237    0.042066
  12 O :   -0.295692    0.041408
Sum of atomic charges         :   -1.0000000

LOEWDIN ATOMIC CHARGES AND SPIN POPULATIONS
-------------------------------------------
   0 W :   -0.004675   -0.048744
   1 C :    0.035162    0.112152
   2 C :    0.037052    0.100521
   3 C :    0.035204    0.113113
   4 C :    0.037049    0.100584
   5 C :    0.035181    0.112314
   6 C :    0.035244    0.113172
   7 O :   -0.202411    0.066958
   8 O :   -0.200173    0.064066
   9 O :   -0.200161    0.064021
  10 O :   -0.202587    0.067519
  11 O :   -0.202544    0.067477
  12 O :   -0.202341    0.066846

  Mayer bond orders larger than 0.100000
B(  0-W ,  1-C ) :   1.2136 B(  0-W ,  2-C ) :   1.2039 B(  0-W ,  3-C ) :   1.2110
B(  0-W ,  4-C ) :   1.2037 B(  0-W ,  5-C ) :   1.2185 B(  0-W ,  6-C ) :   1.2159
B(  1-C ,  5-C ) :  -0.1346 B(  1-C , 12-O ) :   2.1307 B(  2-C ,  4-C ) :   0.1182
B(  2-C ,  9-O ) :   2.1296 B(  3-C ,  6-C ) :  -0.1355 B(  3-C , 11-O ) :   2.1316
B(  4-C ,  8-O ) :   2.1297 B(  5-C ,  7-O ) :   2.1353 B(  6-C , 10-O ) :   2.1364

FINAL SINGLE POINT ENERGY      -746.420749328928

DIPOLE MOMENT
-------------
                                X             Y             Z
Electronic contribution:      0.04178       0.00437       0.05281
Nuclear contribution   :     -0.04022      -0.00423      -0.05103
                        -----------------------------------------
Total Dipole Moment    :      0.00157       0.00014       0.00178
                        -----------------------------------------
Magnitude (a.u.)       :      0.00237
Magnitude (Debye)      :      0.00603

VIBRATIONAL FREQUENCIES
-----------------------

Scaling factor for frequencies =  1.000000000  (already applied!)

   0:         0.00 cm**-1
   1:         0.00 cm**-1
   2:         0.00 cm**-1
   3:         0.00 cm**-1
   4:         0.00 cm**-1
   5:         0.00 cm**-1
   6:       -14.20 cm**-1 ***imaginary mode***
   7:        40.98 cm**-1
   8:        45.10 cm**-1
   9:        57.69 cm**-1
  10:        62.32 cm**-1
  11:        66.19 cm**-1
  12:        77.95 cm**-1
  13:        78.25 cm**-1
  14:        78.54 cm**-1
  15:       286.28 cm**-1
  16:       292.53 cm**-1
  17:       329.40 cm**-1
  18:       342.14 cm**-1
  19:       365.46 cm**-1
  20:       376.12 cm**-1
  21:       396.95 cm**-1
  22:       399.04 cm**-1
  23:       422.55 cm**-1
  24:       455.88 cm**-1
  25:       459.30 cm**-1
  26:       464.77 cm**-1
  27:       480.69 cm**-1
  28:       485.14 cm**-1
  29:       542.40 cm**-1
  30:       544.67 cm**-1
  31:       580.42 cm**-1
  32:       585.54 cm**-1
  33:      1824.93 cm**-1
  34:      1864.86 cm**-1
  35:      1926.53 cm**-1
  36:      1939.48 cm**-1
  37:      1965.79 cm**-1
  38:      2090.92 cm**-1

IR SPECTRUM
-----------

 Mode   freq       eps      Int      T**2         TX        TY        TZ
       cm**-1   L/(mol*cm) km/mol    a.u.
----------------------------------------------------------------------------
  7:     40.98   0.000112    0.56  0.000851  ( 0.021282  0.009481 -0.017555)
  8:     45.10   0.000050    0.25  0.000344  ( 0.011882  0.000245  0.014240)
  9:     57.69   0.000000    0.00  0.000000  ( 0.000334 -0.000161  0.000466)
 10:     62.32   0.000000    0.00  0.000002  ( 0.000609 -0.001057 -0.000492)
 11:     66.19   0.000147    0.74  0.000694  ( 0.013447 -0.019784 -0.011044)
 12:     77.95   0.000139    0.70  0.000555  (-0.011036 -0.019437  0.007459)
 13:     78.25   0.000186    0.94  0.000741  ( 0.016774 -0.000996  0.021414)
 14:     78.54   0.000000    0.00  0.000000  ( 0.000121  0.000145 -0.000003)
 15:    286.28   0.003265   16.50  0.003559  (-0.038208 -0.000056 -0.045822)
 16:    292.53   0.002996   15.14  0.003196  ( 0.042906  0.009270 -0.035631)
 17:    329.40   0.002787   14.08  0.002640  (-0.003901 -0.051128  0.003270)
 18:    342.14   0.000000    0.00  0.000000  ( 0.000019  0.000488 -0.000040)
 19:    365.46   0.000000    0.00  0.000000  ( 0.000310 -0.000408 -0.000223)
 20:    376.12   0.000000    0.00  0.000000  ( 0.000190 -0.000032  0.000213)
 21:    396.95   0.000000    0.00  0.000000  ( 0.000221 -0.000038  0.000258)
 22:    399.04   0.000000    0.00  0.000000  ( 0.000285  0.000006 -0.000211)
 23:    422.55   0.000000    0.00  0.000000  ( 0.000093  0.000019  0.000083)
 24:    455.88   0.001869    9.44  0.001279  ( 0.022636  0.020250 -0.018887)
 25:    459.30   0.000000    0.00  0.000000  ( 0.000364  0.000071  0.000286)
 26:    464.77   0.001733    8.76  0.001164  ( 0.021899  0.000146  0.026160)
 27:    480.69   0.000002    0.01  0.000001  (-0.000728 -0.000004 -0.000845)
 28:    485.14   0.000000    0.00  0.000000  ( 0.000294  0.000095 -0.000277)
 29:    542.40   0.002093   10.58  0.001204  (-0.022943  0.017964  0.018844)
 30:    544.67   0.000000    0.00  0.000000  ( 0.000027  0.000125 -0.000001)
 31:    580.42   0.004328   21.87  0.002327  ( 0.030791  0.000844  0.037125)
 32:    585.54   0.006291   31.79  0.003353  ( 0.015038  0.054300 -0.013351)
 33:   1824.93   0.000008    0.04  0.000001  (-0.000879 -0.000345  0.000697)
 34:   1864.86   0.000005    0.03  0.000001  ( 0.000596 -0.000066  0.000728)
 35:   1926.53   0.588523  2974.15  0.095330  ( 0.195414  0.000499  0.239047)
 36:   1939.48   0.577901  2920.47  0.092984  (-0.110904 -0.268991  0.091262)
 37:   1965.79   0.536152  2709.49  0.085113  ( 0.198106 -0.140558 -0.161586)
 38:   2090.92   0.000000    0.00  0.000000  (-0.000085 -0.000014 -0.000089)

--------------------------
THERMOCHEMISTRY AT 298.15K
--------------------------

Temperature         ... 298.15 K
Pressure            ... 1.00 atm
Total Mass          ... 351.91 AMU

Throughout the following assumptions are being made:
  (1) The electronic state is orbitally nondegenerate
      but the spin degeneracy is treated
  (2) There are no thermally accessible electronically excited states
  (3) Hindered rotations indicated by low frequency modes are not
      treated as such but are treated as vibrations and this may
      cause some error
  (4) All equations used are the standard statistical mechanics
      equations for an ideal gas
  (5) All vibrations are strictly harmonic

freq.      40.98  E(vib)   ...       0.54
freq.      45.10  E(vib)   ...       0.53
freq.      57.69  E(vib)   ...       0.51
freq.      62.32  E(vib)   ...       0.51
freq.      66.19  E(vib)   ...       0.50
freq.      77.95  E(vib)   ...       0.49
freq.      78.25  E(vib)   ...       0.49
freq.      78.54  E(vib)   ...       0.49
freq.     286.28  E(vib)   ...       0.27
freq.     292.53  E(vib)   ...       0.27
freq.     329.40  E(vib)   ...       0.24
freq.     342.14  E(vib)   ...       0.23
freq.     365.46  E(vib)   ...       0.22
freq.     376.12  E(vib)   ...       0.21
freq.     396.95  E(vib)   ...       0.20
freq.     399.04  E(vib)   ...       0.19
freq.     422.55  E(vib)   ...       0.18
freq.     455.88  E(vib)   ...       0.16
freq.     459.30  E(vib)   ...       0.16
freq.     464.77  E(vib)   ...       0.16
freq.     480.69  E(vib)   ...       0.15
freq.     485.14  E(vib)   ...       0.15
freq.     542.40  E(vib)   ...       0.12
freq.     544.67  E(vib)   ...       0.12
freq.     580.42  E(vib)   ...       0.11
freq.     585.54  E(vib)   ...       0.11
freq.    1824.93  E(vib)   ...       0.00
freq.    1864.86  E(vib)   ...       0.00
freq.    1926.53  E(vib)   ...       0.00
freq.    1939.48  E(vib)   ...       0.00
freq.    1965.79  E(vib)   ...       0.00
freq.    2090.92  E(vib)   ...       0.00

------------
INNER ENERGY
------------

The inner energy is: U= E(el) + E(ZPE) + E(vib) + E(rot) + E(trans)
    E(el)   - is the total energy from the electronic structure calculation
              = E(kin-el) + E(nuc-el) + E(el-el) + E(nuc-nuc)
    E(ZPE)  - the the zero temperature vibrational energy from the frequency calculation
    E(vib)  - the the finite temperature correction to E(ZPE) due to population
              of excited vibrational states
    E(rot)  - is the rotational thermal energy
    E(trans)- is the translational thermal energy

Summary of contributions to the inner energy U:
Electronic energy                ...   -746.42074933 Eh
Zero point energy                ...      0.04540118 Eh      28.49 kcal/mol
Thermal vibrational correction   ...      0.01164316 Eh       7.31 kcal/mol
Thermal rotational correction    ...      0.00141627 Eh       0.89 kcal/mol
Thermal translational correction ...      0.00141627 Eh       0.89 kcal/mol
-----------------------------------------------------------------------
Total thermal energy                   -746.36087244 Eh

Summary of corrections to the electronic energy:
(perhaps to be used in another calculation)
Total thermal correction                  0.01447571 Eh       9.08 kcal/mol
Non-thermal (ZPE) correction              0.04540118 Eh      28.49 kcal/mol
-----------------------------------------------------------------------
Total correction                          0.05987689 Eh      37.57 kcal/mol

--------
ENTHALPY
--------

The enthalpy is H = U + kB*T
                kB is Boltzmann's constant
Total free energy                 ...   -746.36087244 Eh
Thermal Enthalpy correction       ...      0.00094421 Eh       0.59 kcal/mol
-----------------------------------------------------------------------
Total Enthalpy                    ...   -746.35992823 Eh

Note: Only C1 symmetry has been detected, increase convergence thresholds
      if your molecule has a higher symmetry. Symmetry factor of 1.0 is
      used for the rotational entropy correction.

Note: Rotational entropy computed according to Herzberg
Infrared and Raman Spectra, Chapter V,1, Van Nostrand Reinhold, 1945
Point Group:  C1, Symmetry Number:   1
Rotational constants in cm-1:     0.020940     0.018608     0.017949

Vibrational entropy computed according to the QRRHO of S. Grimme
Chem.Eur.J. 2012 18 9955

-------
ENTROPY
-------

The entropy contributions are T*S = T*(S(el)+S(vib)+S(rot)+S(trans))
     S(el)   - electronic entropy
     S(vib)  - vibrational entropy
     S(rot)  - rotational entropy
     S(trans)- translational entropy
The entropies will be listed as multiplied by the temperature to get
units of energy

Electronic entropy                ...      0.00065446 Eh      0.41 kcal/mol
Vibrational entropy               ...      0.02094864 Eh     13.15 kcal/mol
Rotational entropy                ...      0.01511476 Eh      9.48 kcal/mol
Translational entropy             ...      0.02065320 Eh     12.96 kcal/mol
-----------------------------------------------------------------------
Final entropy term                ...      0.05737105 Eh     36.00 kcal/mol

In case the symmetry of your molecule has not been determined correctly
or in case you have a reason to use a different symmetry number we print
out the resulting rotational entropy values for sn=1,12 :
 --------------------------------------------------------
|  sn= 1 | S(rot)=       0.01511476 Eh      9.48 kcal/mol|
|  sn= 2 | S(rot)=       0.01446030 Eh      9.07 kcal/mol|
|  sn= 3 | S(rot)=       0.01407747 Eh      8.83 kcal/mol|
|  sn= 4 | S(rot)=       0.01380585 Eh      8.66 kcal/mol|
|  sn= 5 | S(rot)=       0.01359516 Eh      8.53 kcal/mol|
|  sn= 6 | S(rot)=       0.01342301 Eh      8.42 kcal/mol|
|  sn= 7 | S(rot)=       0.01327747 Eh      8.33 kcal/mol|
|  sn= 8 | S(rot)=       0.01315139 Eh      8.25 kcal/mol|
|  sn= 9 | S(rot)=       0.01304018 Eh      8.18 kcal/mol|
|  sn=10 | S(rot)=       0.01294070 Eh      8.12 kcal/mol|
|  sn=11 | S(rot)=       0.01285071 Eh      8.06 kcal/mol|
|  sn=12 | S(rot)=       0.01276856 Eh      8.01 kcal/mol|
 --------------------------------------------------------

-------------------
GIBBS FREE ENERGY
-------------------

The Gibbs free energy is G = H - T*S

Total enthalpy                    ...   -746.35992823 Eh
Total entropy correction          ...     -0.05737105 Eh    -36.00 kcal/mol
-----------------------------------------------------------------------
Final Gibbs free energy         ...   -746.41729928 Eh

For completeness - the Gibbs free energy minus the electronic energy
G-E(el)                           ...      0.00345004 Eh      2.16 kcal/mol

                             ****ORCA TERMINATED NORMALLY****
TOTAL RUN TIME: 0 days 0 hours 32 minutes 31 seconds 4 msec
