                         Program Version 5.0.4 -  RELEASE  -
|  1> !B3LYP def2-SVPD OPT FREQ TightSCF PAL8
|  2>
|  3> %scf
|  4>   MaxIter 300
|  5> end
|  6>
|  7> * xyz 0 1
|  8> W         -1.37621        2.56722        0.10711
|  9> C          0.70839        2.53117        0.30993
| 10> C         -1.33834        4.66140        0.07376
| 11> C         -3.46098        2.60316       -0.09572
| 12> C         -1.41502        0.47296        0.14051
| 13> C         -1.57994        2.60535        2.19168
| 14> C         -1.17198        2.52910       -1.97739
| 15> O         -1.68985        2.62619        3.31419
| 16> O         -1.43573       -0.65466        0.15820
| 17> O         -1.31832        5.78914        0.05603
| 18> O         -1.06136        2.50831       -3.09969
| 19> O         -4.58356        2.62277       -0.20455
| 20> O          1.83095        2.51149        0.41866
| 21> **                         ****END OF INPUT****
 Total Charge           Charge          ....    0
 Multiplicity           Mult            ....    1
 Number of Electrons    NEL             ....   98
FINAL SINGLE POINT ENERGY      -746.388445612534
FINAL SINGLE POINT ENERGY      -746.392712298510
FINAL SINGLE POINT ENERGY      -746.392778178736
FINAL SINGLE POINT ENERGY      -746.392781540152
                    ***********************HURRAY********************

CARTESIAN COORDINATES (ANGSTROEM)
---------------------------------
  W     -1.376352    2.567194    0.107097
  C      0.702730    2.531798    0.310111
  C     -1.337752    4.655804    0.073474
  C     -3.455437    2.602573   -0.095947
  C     -1.415079    0.478586    0.140815
  C     -1.579035    2.604679    2.186160
  C     -1.173403    2.529742   -1.971947
  O     -1.690197    2.625547    3.326411
  O     -1.436295   -0.666912    0.159400
  O     -1.316581    5.801308    0.055191
  O     -1.061845    2.508931   -3.112161
  O     -4.595728    2.622233   -0.206926
  O      1.843025    2.512116    0.421041

 Multiplicity           Mult            ....    1
 Number of Electrons    NEL             ....   98
 Basis Dimension        Dim             ....  293

ORBITAL ENERGIES
----------------

  NO   OCC          E(Eh)            E(eV)
   0   2.0000     -19.246090      -523.7127
   1   2.0000     -19.246087      -523.7127
   2   2.0000     -19.246033      -523.7112
   3   2.0000     -19.246022      -523.7109
   4   2.0000     -19.246020      -523.7108
   5   2.0000     -19.246019      -523.7108
   6   2.0000     -10.325762      -280.9783
   7   2.0000     -10.325755      -280.9781
   8   2.0000     -10.325723      -280.9772
   9   2.0000     -10.325720      -280.9771
  10   2.0000     -10.325717      -280.9770
  11   2.0000     -10.325503      -280.9712
  12   2.0000      -2.968978       -80.7900
  13   2.0000      -1.619484       -44.0684
  14   2.0000      -1.619480       -44.0683
  15   2.0000      -1.619475       -44.0682
  16   2.0000      -1.149895       -31.2902
  17   2.0000      -1.149260       -31.2730
  18   2.0000      -1.149260       -31.2729
  19   2.0000      -1.149259       -31.2729
  20   2.0000      -1.149128       -31.2694
  21   2.0000      -1.149126       -31.2693
  22   2.0000      -0.616968       -16.7886
  23   2.0000      -0.583003       -15.8643
  24   2.0000      -0.582997       -15.8642
  25   2.0000      -0.576509       -15.6876
  26   2.0000      -0.576502       -15.6874
  27   2.0000      -0.576501       -15.6874
  28   2.0000      -0.522165       -14.2088
  29   2.0000      -0.493675       -13.4336
  30   2.0000      -0.493670       -13.4334
  31   2.0000      -0.493665       -13.4333
  32   2.0000      -0.490602       -13.3499
  33   2.0000      -0.490583       -13.3495
  34   2.0000      -0.486937       -13.2502
  35   2.0000      -0.486929       -13.2500
  36   2.0000      -0.486923       -13.2499
  37   2.0000      -0.479660       -13.0522
  38   2.0000      -0.479658       -13.0522
  39   2.0000      -0.479652       -13.0520
  40   2.0000      -0.474807       -12.9202
  41   2.0000      -0.474807       -12.9202
  42   2.0000      -0.474806       -12.9201
  43   2.0000      -0.429205       -11.6793
  44   2.0000      -0.429192       -11.6789
  45   2.0000      -0.429189       -11.6788
  46   2.0000      -0.256645        -6.9837
  47   2.0000      -0.256636        -6.9834
  48   2.0000      -0.256607        -6.9826
  49   0.0000      -0.083957        -2.2846
  50   0.0000      -0.083936        -2.2840
  51   0.0000      -0.083934        -2.2840
  52   0.0000      -0.060471        -1.6455
  53   0.0000      -0.060466        -1.6454

MULLIKEN ATOMIC CHARGES
-----------------------
   0 W :   -2.092866
   1 C :    0.557741
   2 C :    0.559505
   3 C :    0.557806
   4 C :    0.559479
   5 C :    0.557725
   6 C :    0.557777
   7 O :   -0.209597
   8 O :   -0.209382
   9 O :   -0.209390
  10 O :   -0.209590
  11 O :   -0.209600
  12 O :   -0.209607
Sum of atomic charges:   -0.0000000

LOEWDIN ATOMIC CHARGES
----------------------
   0 W :    0.010147
   1 C :    0.098453
   2 C :    0.098477
   3 C :    0.098456
   4 C :    0.098479
   5 C :    0.098446
   6 C :    0.098449
   7 O :   -0.100150
   8 O :   -0.100152
   9 O :   -0.100152
  10 O :   -0.100152
  11 O :   -0.100153
  12 O :   -0.100149

  Mayer bond orders larger than 0.100000
B(  0-W ,  1-C ) :   1.1777 B(  0-W ,  2-C ) :   1.1803 B(  0-W ,  3-C ) :   1.1779
B(  0-W ,  4-C ) :   1.1803 B(  0-W ,  5-C ) :   1.1778 B(  0-W ,  6-C ) :   1.1779
B(  1-C ,  3-C ) :   0.1032 B(  1-C , 12-O ) :   2.2586 B(  2-C ,  4-C ) :   0.1039
B(  2-C ,  9-O ) :   2.2606 B(  3-C , 11-O ) :   2.2586 B(  4-C ,  8-O ) :   2.2606
B(  5-C ,  6-C ) :   0.1032 B(  5-C ,  7-O ) :   2.2586 B(  6-C , 10-O ) :   2.2586

FINAL SINGLE POINT ENERGY      -746.392782288401

DIPOLE MOMENT
-------------
                                X             Y             Z
Electronic contribution:     -0.00403      -0.00047      -0.00303
Nuclear contribution   :      0.00394       0.00045       0.00294
                        -----------------------------------------
Total Dipole Moment    :     -0.00010      -0.00002      -0.00009
                        -----------------------------------------
Magnitude (a.u.)       :      0.00013
Magnitude (Debye)      :      0.00034

VIBRATIONAL FREQUENCIES
-----------------------

Scaling factor for frequencies =  1.000000000  (already applied!)

   0:         0.00 cm**-1
   1:         0.00 cm**-1
   2:         0.00 cm**-1
   3:         0.00 cm**-1
   4:         0.00 cm**-1
   5:         0.00 cm**-1
   6:        58.42 cm**-1
   7:        58.57 cm**-1
   8:        58.61 cm**-1
   9:        81.94 cm**-1
  10:        82.07 cm**-1
  11:        82.10 cm**-1
  12:        84.39 cm**-1
  13:        84.51 cm**-1
  14:        84.57 cm**-1
  15:       357.32 cm**-1
  16:       357.34 cm**-1
  17:       357.41 cm**-1
  18:       357.43 cm**-1
  19:       357.46 cm**-1
  20:       357.58 cm**-1
  21:       403.65 cm**-1
  22:       403.66 cm**-1
  23:       422.34 cm**-1
  24:       479.88 cm**-1
  25:       479.89 cm**-1
  26:       479.91 cm**-1
  27:       531.83 cm**-1
  28:       531.87 cm**-1
  29:       531.88 cm**-1
  30:       593.05 cm**-1
  31:       593.11 cm**-1
  32:       593.12 cm**-1
  33:      2071.45 cm**-1
  34:      2071.46 cm**-1
  35:      2071.48 cm**-1
  36:      2098.31 cm**-1
  37:      2098.33 cm**-1
  38:      2199.83 cm**-1

IR SPECTRUM
-----------

 Mode   freq       eps      Int      T**2         TX        TY        TZ
       cm**-1   L/(mol*cm) km/mol    a.u.
----------------------------------------------------------------------------
  6:     58.42   0.000000    0.00  0.000000  (-0.000062 -0.000022 -0.000013)
  7:     58.57   0.000000    0.00  0.000000  ( 0.000013 -0.000072  0.000225)
  8:     58.61   0.000000    0.00  0.000000  (-0.000075 -0.000218 -0.000159)
  9:     81.94   0.000239    1.21  0.000909  (-0.030020 -0.000220  0.002809)
 10:     82.07   0.000239    1.21  0.000908  ( 0.002499  0.011909  0.027571)
 11:     82.10   0.000239    1.21  0.000907  ( 0.001309 -0.027666  0.011837)
 12:     84.39   0.000000    0.00  0.000000  ( 0.000006 -0.000002 -0.000021)
 13:     84.51   0.000000    0.00  0.000000  ( 0.000002 -0.000006  0.000001)
 14:     84.57   0.000000    0.00  0.000000  ( 0.000003 -0.000005 -0.000003)
 15:    357.32   0.000001    0.00  0.000000  (-0.000109  0.000633 -0.000262)
 16:    357.34   0.000003    0.02  0.000003  (-0.000217  0.001701 -0.000116)
 17:    357.41   0.012434   62.84  0.010856  (-0.095003 -0.001722 -0.042752)
 18:    357.43   0.012438   62.86  0.010860  ( 0.040582  0.029677 -0.091279)
 19:    357.46   0.012440   62.87  0.010860  ( 0.013717 -0.099875 -0.026406)
 20:    357.58   0.000002    0.01  0.000002  (-0.000132 -0.000128 -0.001223)
 21:    403.65   0.000000    0.00  0.000000  ( 0.000002  0.000003  0.000009)
 22:    403.66   0.000000    0.00  0.000000  (-0.000015  0.000000  0.000003)
 23:    422.34   0.000000    0.00  0.000000  (-0.000008 -0.000002 -0.000008)
 24:    479.88   0.000000    0.00  0.000000  (-0.000002  0.000013  0.000013)
 25:    479.89   0.000000    0.00  0.000000  (-0.000004 -0.000003  0.000018)
 26:    479.91   0.000000    0.00  0.000000  (-0.000000 -0.000015  0.000002)
 27:    531.83   0.000000    0.00  0.000000  ( 0.000067 -0.000016  0.000028)
 28:    531.87   0.000000    0.00  0.000000  ( 0.000009  0.000002 -0.000032)
 29:    531.88   0.000000    0.00  0.000000  (-0.000106 -0.000037  0.000027)
 30:    593.05   0.014141   71.46  0.007441  ( 0.018645  0.083474  0.011194)
 31:    593.11   0.014119   71.35  0.007429  ( 0.076957 -0.012197 -0.036845)
 32:    593.12   0.014146   71.49  0.007443  (-0.034126  0.017976 -0.077170)
 33:   2071.45   0.451568  2282.04  0.068029  (-0.185487  0.002614 -0.183348)
 34:   2071.46   0.451793  2283.18  0.068062  ( 0.179239  0.057979 -0.180482)
 35:   2071.48   0.451729  2282.85  0.068052  (-0.039003  0.254313  0.043074)
 36:   2098.31   0.000000    0.00  0.000000  (-0.000037 -0.000004 -0.000003)
 37:   2098.33   0.000000    0.00  0.000000  (-0.000019 -0.000012  0.000026)
 38:   2199.83   0.000000    0.00  0.000000  ( 0.000006 -0.000000  0.000005)

--------------------------
THERMOCHEMISTRY AT 298.15K
--------------------------

Temperature         ... 298.15 K
Pressure            ... 1.00 atm
Total Mass          ... 351.91 AMU

Throughout the following assumptions are being made:
  (1) The electronic state is orbitally nondegenerate
  (2) There are no thermally accessible electronically excited states
  (3) Hindered rotations indicated by low frequency modes are not
      treated as such but are treated as vibrations and this may
      cause some error
  (4) All equations used are the standard statistical mechanics
      equations for an ideal gas
  (5) All vibrations are strictly harmonic

freq.      58.42  E(vib)   ...       0.51
freq.      58.57  E(vib)   ...       0.51
freq.      58.61  E(vib)   ...       0.51
freq.      81.94  E(vib)   ...       0.48
freq.      82.07  E(vib)   ...       0.48
freq.      82.10  E(vib)   ...       0.48
freq.      84.39  E(vib)   ...       0.48
freq.      84.51  E(vib)   ...       0.48
freq.      84.57  E(vib)   ...       0.48
freq.     357.32  E(vib)   ...       0.22
freq.     357.34  E(vib)   ...       0.22
freq.     357.41  E(vib)   ...       0.22
freq.     357.43  E(vib)   ...       0.22
freq.     357.46  E(vib)   ...       0.22
freq.     357.58  E(vib)   ...       0.22
freq.     403.65  E(vib)   ...       0.19
freq.     403.66  E(vib)   ...       0.19
freq.     422.34  E(vib)   ...       0.18
freq.     479.88  E(vib)   ...       0.15
freq.     479.89  E(vib)   ...       0.15
freq.     479.91  E(vib)   ...       0.15
freq.     531.83  E(vib)   ...       0.13
freq.     531.87  E(vib)   ...       0.13
freq.     531.88  E(vib)   ...       0.13
freq.     593.05  E(vib)   ...       0.10
freq.     593.11  E(vib)   ...       0.10
freq.     593.12  E(vib)   ...       0.10
freq.    2071.45  E(vib)   ...       0.00
freq.    2071.46  E(vib)   ...       0.00
freq.    2071.48  E(vib)   ...       0.00
freq.    2098.31  E(vib)   ...       0.00
freq.    2098.33  E(vib)   ...       0.00
freq.    2199.83  E(vib)   ...       0.00

------------
INNER ENERGY
------------

The inner energy is: U= E(el) + E(ZPE) + E(vib) + E(rot) + E(trans)
    E(el)   - is the total energy from the electronic structure calculation
              = E(kin-el) + E(nuc-el) + E(el-el) + E(nuc-nuc)
    E(ZPE)  - the the zero temperature vibrational energy from the frequency calculation
    E(vib)  - the the finite temperature correction to E(ZPE) due to population
              of excited vibrational states
    E(rot)  - is the rotational thermal energy
    E(trans)- is the translational thermal energy

Summary of contributions to the inner energy U:
Electronic energy                ...   -746.39278229 Eh
Zero point energy                ...      0.04892306 Eh      30.70 kcal/mol
Thermal vibrational correction   ...      0.01189035 Eh       7.46 kcal/mol
Thermal rotational correction    ...      0.00141627 Eh       0.89 kcal/mol
Thermal translational correction ...      0.00141627 Eh       0.89 kcal/mol
-----------------------------------------------------------------------
Total thermal energy                   -746.32913634 Eh

Summary of corrections to the electronic energy:
(perhaps to be used in another calculation)
Total thermal correction                  0.01472289 Eh       9.24 kcal/mol
Non-thermal (ZPE) correction              0.04892306 Eh      30.70 kcal/mol
-----------------------------------------------------------------------
Total correction                          0.06364595 Eh      39.94 kcal/mol

--------
ENTHALPY
--------

The enthalpy is H = U + kB*T
                kB is Boltzmann's constant
Total free energy                 ...   -746.32913634 Eh
Thermal Enthalpy correction       ...      0.00094421 Eh       0.59 kcal/mol
-----------------------------------------------------------------------
Total Enthalpy                    ...   -746.32819213 Eh

Note: Only C1 symmetry has been detected, increase convergence thresholds
      if your molecule has a higher symmetry. Symmetry factor of 1.0 is
      used for the rotational entropy correction.

Note: Rotational entropy computed according to Herzberg
Infrared and Raman Spectra, Chapter V,1, Van Nostrand Reinhold, 1945
Point Group:  C1, Symmetry Number:   1
Rotational constants in cm-1:     0.019172     0.019166     0.019164

Vibrational entropy computed according to the QRRHO of S. Grimme
Chem.Eur.J. 2012 18 9955

-------
ENTROPY
-------

The entropy contributions are T*S = T*(S(el)+S(vib)+S(rot)+S(trans))
     S(el)   - electronic entropy
     S(vib)  - vibrational entropy
     S(rot)  - rotational entropy
     S(trans)- translational entropy
The entropies will be listed as multiplied by the temperature to get
units of energy

Electronic entropy                ...      0.00000000 Eh      0.00 kcal/mol
Vibrational entropy               ...      0.02144308 Eh     13.46 kcal/mol
Rotational entropy                ...      0.01511150 Eh      9.48 kcal/mol
Translational entropy             ...      0.02065320 Eh     12.96 kcal/mol
-----------------------------------------------------------------------
Final entropy term                ...      0.05720779 Eh     35.90 kcal/mol

In case the symmetry of your molecule has not been determined correctly
or in case you have a reason to use a different symmetry number we print
out the resulting rotational entropy values for sn=1,12 :
 --------------------------------------------------------
|  sn= 1 | S(rot)=       0.01511150 Eh      9.48 kcal/mol|
|  sn= 2 | S(rot)=       0.01445705 Eh      9.07 kcal/mol|
|  sn= 3 | S(rot)=       0.01407422 Eh      8.83 kcal/mol|
|  sn= 4 | S(rot)=       0.01380259 Eh      8.66 kcal/mol|
|  sn= 5 | S(rot)=       0.01359190 Eh      8.53 kcal/mol|
|  sn= 6 | S(rot)=       0.01341976 Eh      8.42 kcal/mol|
|  sn= 7 | S(rot)=       0.01327421 Eh      8.33 kcal/mol|
|  sn= 8 | S(rot)=       0.01314814 Eh      8.25 kcal/mol|
|  sn= 9 | S(rot)=       0.01303693 Eh      8.18 kcal/mol|
|  sn=10 | S(rot)=       0.01293745 Eh      8.12 kcal/mol|
|  sn=11 | S(rot)=       0.01284746 Eh      8.06 kcal/mol|
|  sn=12 | S(rot)=       0.01276530 Eh      8.01 kcal/mol|
 --------------------------------------------------------

-------------------
GIBBS FREE ENERGY
-------------------

The Gibbs free energy is G = H - T*S

Total enthalpy                    ...   -746.32819213 Eh
Total entropy correction          ...     -0.05720779 Eh    -35.90 kcal/mol
-----------------------------------------------------------------------
Final Gibbs free energy         ...   -746.38539992 Eh

For completeness - the Gibbs free energy minus the electronic energy
G-E(el)                           ...      0.00738237 Eh      4.63 kcal/mol

                             ****ORCA TERMINATED NORMALLY****
TOTAL RUN TIME: 0 days 0 hours 10 minutes 46 seconds 105 msec
