                         Program Version 5.0.4 -  RELEASE  -
|  1> # input to generate an atomic fitting density for Ir
|  2> # this file is used internally by ORCA
|  3> #
|  4> # atomic ground state (S=4): 1s2 2s2 2p6 3s2 3p6 4s2 3d10 4p6 5s2 4d10 5p6 6s2 4f14 5d7
|  5> #
|  6> ! RHF AllowRHF def2-SVP def2/J  NoMulliken NoLoewdin NoMayer NoPrintMOs
|  7>
|  8> %output print[p_atomdensfit] 2 end
|  9>
| 10> %scf
| 11>   guess hcore
| 12>   maxiter 1000
| 13>   maxdisk 500000
| 14>   SCFMode Conventional
| 15>   lshift 1.000000
| 16>   hftyp rohf
| 17>   rohf_case sahf
| 18>   rohf_numop   2
| 19>   rohf_norb[1] 5
| 20>   rohf_nel[1]  7
| 21> end
| 22>
| 23> %basis
| 24>   NewECP 77
| 25>     N_core 60
| 26>     lmax f
| 27>     s 3
| 28>       1      13.6522026000    732.2691998000  2
| 29>       2       6.8261013000     26.4847209000  2
| 30>       3       3.0340719000    -21.5310311000  2
| 31>     p 3
| 32>       1      10.2798684000    299.4894736000  2
| 33>       2       5.1399341000     26.4662335000  2
| 34>       3       3.0340719000    -21.5310311000  2
| 35>     d 3
| 36>       1       7.3498590000    124.4575945000  2
| 37>       2       3.6749295000     14.0359952000  2
| 38>       3       3.0340719000    -21.5310311000  2
| 39>     f 1
| 40>       1       3.0340719000     21.5310311000  2
| 41>   end
| 42>   NewGTO 77
| 43>     s 2
| 44>      1      15.2937090000     -2.2767275940
| 45>      2      13.5736820000      3.2567766805
| 46>     s 1
| 47>      1       5.8213436542      1.0000000000
| 48>     s 1
| 49>      1       1.1520364268      1.0000000000
| 50>     s 1
| 51>      1       0.5110489534      1.0000000000
| 52>     s 1
| 53>      1       0.1408404358      1.0000000000
| 54>     s 1
| 55>      1       0.0498286731      1.0000000000
| 56>     p 4
| 57>      1       8.6697960000      0.2380148136
| 58>      2       6.2456140000     -0.4973674832
| 59>      3       1.5657036153      0.5615609832
| 60>      4       0.7557741286      0.5992421398
| 61>     p 1
| 62>      1       0.3130601111      1.0000000000
| 63>     p 1
| 64>      1       0.0548000000      1.0000000000
| 65>     d 4
| 66>      1       3.6994850000     -0.6275241978
| 67>      2       3.3617430000      0.6503556447
| 68>      3       1.1177053710      0.5069655799
| 69>      4       0.4432253486      0.5387080233
| 70>     d 1
| 71>      1       0.1564130512      1.0000000000
| 72>     f 1
| 73>      1       0.6100800000      1.0000000000
| 74>   end
| 75>   NewAuxGTO 77
| 76>     S 1
| 77>      1 1310.72 1.0
| 78>     S 1
| 79>      1  655.36 1.0
| 80>     S 1
| 81>      1  327.68 1.0
| 82>     S 1
| 83>      1  163.84 1.0
| 84>     S 1
| 85>      1   81.82 1.0
| 86>     S 1
| 87>      1   40.96 1.0
| 88>     S 1
| 89>      1   20.48 1.0
| 90>     S 1
| 91>      1   10.24 1.0
| 92>     S 1
| 93>      1    5.12 1.0
| 94>     S 1
| 95>      1    2.56 1.0
| 96>     S 1
| 97>      1    1.28 1.0
| 98>     S 1
| 99>      1    0.64 1.0
|100>     S 1
|101>      1    0.32 1.0
|102>     S 1
|103>      1    0.16 1.0
|104>     S 1
|105>      1    0.08 1.0
|106>     S 1
|107>      1    0.04 1.0
|108>     S 1
|109>      1    0.02 1.0
|110>     S 1
|111>      1    0.01 1.0
|112>   end
|113> end
|114>
|115> * xyz 0 4
|116> 77  0.0 0.0 0.0
|117> *
|118>
|119>
|120>                          ****END OF INPUT****

CARTESIAN COORDINATES (ANGSTROEM)
---------------------------------
  Ir     0.000000    0.000000    0.000000

 Total Charge           Charge          ....    0
 Multiplicity           Mult            ....    4
 Number of Electrons    NEL             ....   17
 Basis Dimension        Dim             ....   32

ORBITAL ENERGIES
----------------

  NO   OCC          E(Eh)            E(eV)
   0   2.0000      -4.197820      -114.2285
   1   2.0000      -2.387582       -64.9694
   2   2.0000      -2.381249       -64.7971
   3   2.0000      -2.380794       -64.7847
   4   2.0000      -0.388637       -10.5754
   5   1.4000      -0.424294       -11.5456
   6   1.4000      -0.419016       -11.4020
   7   1.4000      -0.417895       -11.3715
   8   1.4000      -0.401850       -10.9349
   9   1.4000      -0.297875        -8.1056
  10   0.0000       0.019445         0.5291
  11   0.0000       0.024197         0.6584
  12   0.0000       0.024534         0.6676
  13   0.0000       0.195716         5.3257
  14   0.0000       0.526079        14.3153

FINAL SINGLE POINT ENERGY      -103.404415217277

DIPOLE MOMENT
-------------
                                X             Y             Z
Electronic contribution:     -0.00000      -0.00000      -0.00000
Nuclear contribution   :      0.00000       0.00000       0.00000
                        -----------------------------------------
Total Dipole Moment    :     -0.00000      -0.00000      -0.00000
                        -----------------------------------------
Magnitude (a.u.)       :      0.00000
Magnitude (Debye)      :      0.00000

Rotational constants in cm-1:     0.000000     0.000000     0.000000
Rotational constants in MHz :     0.000000     0.000000     0.000000

                             ****ORCA TERMINATED NORMALLY****
TOTAL RUN TIME: 0 days 0 hours 0 minutes 0 seconds 690 msec
