                         Program Version 5.0.4 -  RELEASE  -
|  1> # input to generate an atomic fitting density for W
|  2> # this file is used internally by ORCA
|  3> #
|  4> # atomic ground state (S=5): 1s2 2s2 2p6 3s2 3p6 4s2 3d10 4p6 5s2 4d10 5p6 6s2 4f14 5d4
|  5> #
|  6> ! RHF AllowRHF def2-SVP def2/J  NoMulliken NoLoewdin NoMayer NoPrintMOs
|  7>
|  8> %output print[p_atomdensfit] 2 end
|  9>
| 10> %scf
| 11>   guess hcore
| 12>   maxiter 1000
| 13>   maxdisk 500000
| 14>   SCFMode Conventional
| 15>   lshift 0.500000
| 16>   hftyp rohf
| 17>   rohf_case sahf
| 18>   rohf_numop   2
| 19>   rohf_norb[1] 5
| 20>   rohf_nel[1]  4
| 21> end
| 22>
| 23> %basis
| 24>   NewECP 74
| 25>     N_core 60
| 26>     lmax f
| 27>     s 3
| 28>       1      14.3228564000   1192.3958823000  2
| 29>       2       7.1614281000     32.5229332000  2
| 30>       3       2.2588885000    -14.1525795000  2
| 31>     p 3
| 32>       1      10.0216411000    359.0319671000  2
| 33>       2       5.0108204000     24.0303802000  2
| 34>       3       2.2588885000    -14.1525795000  2
| 35>     d 3
| 36>       1       6.5979974000    108.3013490000  2
| 37>       2       3.2989987000     10.9825283000  2
| 38>       3       2.2588885000    -14.1525795000  2
| 39>     f 1
| 40>       1       2.2588885000     14.1525795000  2
| 41>   end
| 42>   NewGTO 74
| 43>     s 2
| 44>      1      15.0000000000     -1.1137185609
| 45>      2      12.0000000000      2.0918746722
| 46>     s 1
| 47>      1       5.2610967725      1.0000000000
| 48>     s 1
| 49>      1       0.9278537031      1.0000000000
| 50>     s 1
| 51>      1       0.4033445824      1.0000000000
| 52>     s 1
| 53>      1       0.1158597665      1.0000000000
| 54>     s 1
| 55>      1       0.0418004741      1.0000000000
| 56>     p 4
| 57>      1       7.2496570000      0.5026370135
| 58>      2       6.0848760000     -0.7313189333
| 59>      3       1.2523777812      0.5709572661
| 60>      4       0.5856920892      0.5687139587
| 61>     p 1
| 62>      1       0.2410696430      1.0000000000
| 63>     p 1
| 64>      1       0.0403000000      1.0000000000
| 65>     d 4
| 66>      1       4.0131231332     -0.0701863048
| 67>      2       1.6237452450      0.2042259289
| 68>      3       0.6918745239      0.4883173718
| 69>      4       0.2786583532      0.4776563921
| 70>     d 1
| 71>      1       0.1022529645      1.0000000000
| 72>     f 1
| 73>      1       0.4319900000      1.0000000000
| 74>   end
| 75>   NewAuxGTO 74
| 76>     S 1
| 77>      1 1310.72 1.0
| 78>     S 1
| 79>      1  655.36 1.0
| 80>     S 1
| 81>      1  327.68 1.0
| 82>     S 1
| 83>      1  163.84 1.0
| 84>     S 1
| 85>      1   81.82 1.0
| 86>     S 1
| 87>      1   40.96 1.0
| 88>     S 1
| 89>      1   20.48 1.0
| 90>     S 1
| 91>      1   10.24 1.0
| 92>     S 1
| 93>      1    5.12 1.0
| 94>     S 1
| 95>      1    2.56 1.0
| 96>     S 1
| 97>      1    1.28 1.0
| 98>     S 1
| 99>      1    0.64 1.0
|100>     S 1
|101>      1    0.32 1.0
|102>     S 1
|103>      1    0.16 1.0
|104>     S 1
|105>      1    0.08 1.0
|106>     S 1
|107>      1    0.04 1.0
|108>     S 1
|109>      1    0.02 1.0
|110>     S 1
|111>      1    0.01 1.0
|112>   end
|113> end
|114>
|115> * xyz 0 5
|116> 74  0.0 0.0 0.0
|117> *
|118>
|119>
|120>                          ****END OF INPUT****

CARTESIAN COORDINATES (ANGSTROEM)
---------------------------------
  W      0.000000    0.000000    0.000000

 Total Charge           Charge          ....    0
 Multiplicity           Mult            ....    5
 Number of Electrons    NEL             ....   14
 Basis Dimension        Dim             ....   32

ORBITAL ENERGIES
----------------

  NO   OCC          E(Eh)            E(eV)
   0   2.0000      -3.772781      -102.6626
   1   2.0000      -2.240485       -60.9667
   2   2.0000      -2.227513       -60.6137
   3   2.0000      -2.227467       -60.6125
   4   2.0000      -0.598766       -16.2933
   5   0.8000      -0.638524       -17.3751
   6   0.8000      -0.519503       -14.1364
   7   0.8000      -0.225889        -6.1467
   8   0.8000      -0.212552        -5.7838
   9   0.8000      -0.212508        -5.7826
  10   0.0000      -0.271284        -7.3820
  11   0.0000      -0.271188        -7.3794
  12   0.0000      -0.244957        -6.6656
  13   0.0000       0.033425         0.9095
  14   0.0000       0.158258         4.3064

FINAL SINGLE POINT ENERGY       -65.819334789747

DIPOLE MOMENT
-------------
                                X             Y             Z
Electronic contribution:      0.00000      -0.00000       0.00000
Nuclear contribution   :      0.00000       0.00000       0.00000
                        -----------------------------------------
Total Dipole Moment    :      0.00000      -0.00000       0.00000
                        -----------------------------------------
Magnitude (a.u.)       :      0.00000
Magnitude (Debye)      :      0.00000

Rotational constants in cm-1:     0.000000     0.000000     0.000000
Rotational constants in MHz :     0.000000     0.000000     0.000000

                             ****ORCA TERMINATED NORMALLY****
TOTAL RUN TIME: 0 days 0 hours 0 minutes 0 seconds 914 msec
