                         Program Version 5.0.4 -  RELEASE  -
|  1> !B3LYP def2-SVP OPT FREQ
|  2>
|  3> * xyz 0 1
|  4> W         -1.37621        2.56722        0.10711
|  5> C          0.70839        2.53117        0.30993
|  6> C         -1.33834        4.66140        0.07376
|  7> C         -3.46098        2.60316       -0.09572
|  8> C         -1.41502        0.47296        0.14051
|  9> C         -1.57994        2.60535        2.19168
| 10> C         -1.17198        2.52910       -1.97739
| 11> O         -1.68985        2.62619        3.31419
| 12> O         -1.43573       -0.65466        0.15820
| 13> O         -1.31832        5.78914        0.05603
| 14> O         -1.06136        2.50831       -3.09969
| 15> O         -4.58356        2.62277       -0.20455
| 16> O          1.83095        2.51149        0.41866
| 17> **                         ****END OF INPUT****
 Total Charge           Charge          ....    0
 Multiplicity           Mult            ....    1
 Number of Electrons    NEL             ....   98
FINAL SINGLE POINT ENERGY      -746.349810641442
FINAL SINGLE POINT ENERGY      -746.353949759598
FINAL SINGLE POINT ENERGY      -746.354010783285
FINAL SINGLE POINT ENERGY      -746.354010618748
                    ***********************HURRAY********************

CARTESIAN COORDINATES (ANGSTROEM)
---------------------------------
  W     -1.376353    2.567195    0.107089
  C      0.705161    2.531706    0.310207
  C     -1.337765    4.658245    0.073438
  C     -3.457870    2.602668   -0.096059
  C     -1.415038    0.476146    0.140860
  C     -1.579144    2.604698    2.188586
  C     -1.173326    2.529720   -1.974393
  O     -1.690502    2.625560    3.328540
  O     -1.436220   -0.669073    0.159522
  O     -1.316585    5.803472    0.055143
  O     -1.061603    2.508912   -3.114311
  O     -4.597859    2.622368   -0.207261
  O      1.845155    2.511985    0.421358

 Multiplicity           Mult            ....    1
 Number of Electrons    NEL             ....   98
 Basis Dimension        Dim             ....  200

ORBITAL ENERGIES
----------------

  NO   OCC          E(Eh)            E(eV)
   0   2.0000     -19.234153      -523.3879
   1   2.0000     -19.234061      -523.3854
   2   2.0000     -19.234059      -523.3854
   3   2.0000     -19.234057      -523.3853
   4   2.0000     -19.234009      -523.3840
   5   2.0000     -19.234007      -523.3839
   6   2.0000     -10.317378      -280.7501
   7   2.0000     -10.317375      -280.7501
   8   2.0000     -10.317211      -280.7456
   9   2.0000     -10.317211      -280.7456
  10   2.0000     -10.317209      -280.7455
  11   2.0000     -10.317108      -280.7428
  12   2.0000      -2.960703       -80.5648
  13   2.0000      -1.611312       -43.8460
  14   2.0000      -1.611306       -43.8459
  15   2.0000      -1.611301       -43.8457
  16   2.0000      -1.141346       -31.0576
  17   2.0000      -1.140674       -31.0393
  18   2.0000      -1.140673       -31.0393
  19   2.0000      -1.140673       -31.0393
  20   2.0000      -1.140536       -31.0356
  21   2.0000      -1.140535       -31.0355
  22   2.0000      -0.608477       -16.5575
  23   2.0000      -0.574181       -15.6243
  24   2.0000      -0.574169       -15.6239
  25   2.0000      -0.567642       -15.4463
  26   2.0000      -0.567635       -15.4461
  27   2.0000      -0.567634       -15.4461
  28   2.0000      -0.513072       -13.9614
  29   2.0000      -0.485258       -13.2045
  30   2.0000      -0.485252       -13.2044
  31   2.0000      -0.485249       -13.2043
  32   2.0000      -0.481753       -13.1092
  33   2.0000      -0.481737       -13.1087
  34   2.0000      -0.478653       -13.0248
  35   2.0000      -0.478644       -13.0246
  36   2.0000      -0.478639       -13.0244
  37   2.0000      -0.471265       -12.8238
  38   2.0000      -0.471264       -12.8237
  39   2.0000      -0.471257       -12.8236
  40   2.0000      -0.466445       -12.6926
  41   2.0000      -0.466444       -12.6926
  42   2.0000      -0.466444       -12.6926
  43   2.0000      -0.420693       -11.4476
  44   2.0000      -0.420680       -11.4473
  45   2.0000      -0.420675       -11.4472
  46   2.0000      -0.247593        -6.7373
  47   2.0000      -0.247583        -6.7371
  48   2.0000      -0.247562        -6.7365
  49   0.0000      -0.073145        -1.9904
  50   0.0000      -0.073125        -1.9898
  51   0.0000      -0.073124        -1.9898
  52   0.0000      -0.048311        -1.3146
  53   0.0000      -0.048302        -1.3144

MULLIKEN ATOMIC CHARGES
-----------------------
   0 W :   -0.547800
   1 C :    0.129487
   2 C :    0.130205
   3 C :    0.129478
   4 C :    0.130204
   5 C :    0.129495
   6 C :    0.129487
   7 O :   -0.038414
   8 O :   -0.038452
   9 O :   -0.038454
  10 O :   -0.038411
  11 O :   -0.038411
  12 O :   -0.038414
Sum of atomic charges:   -0.0000000

LOEWDIN ATOMIC CHARGES
----------------------
   0 W :   -1.182715
   1 C :    0.150298
   2 C :    0.150347
   3 C :    0.150297
   4 C :    0.150347
   5 C :    0.150298
   6 C :    0.150297
   7 O :    0.046807
   8 O :    0.046799
   9 O :    0.046797
  10 O :    0.046809
  11 O :    0.046810
  12 O :    0.046808

  Mayer bond orders larger than 0.100000
B(  0-W ,  1-C ) :   0.8601 B(  0-W ,  2-C ) :   0.8602 B(  0-W ,  3-C ) :   0.8601
B(  0-W ,  4-C ) :   0.8602 B(  0-W ,  5-C ) :   0.8601 B(  0-W ,  6-C ) :   0.8601
B(  0-W ,  7-O ) :   0.1163 B(  0-W ,  8-O ) :   0.1164 B(  0-W ,  9-O ) :   0.1164
B(  0-W , 10-O ) :   0.1163 B(  0-W , 11-O ) :   0.1163 B(  0-W , 12-O ) :   0.1163
B(  1-C , 12-O ) :   2.4183 B(  2-C ,  9-O ) :   2.4182 B(  3-C , 11-O ) :   2.4183
B(  4-C ,  8-O ) :   2.4182 B(  5-C ,  7-O ) :   2.4183 B(  6-C , 10-O ) :   2.4183

FINAL SINGLE POINT ENERGY      -746.354011184694

DIPOLE MOMENT
-------------
                                X             Y             Z
Electronic contribution:     -0.00414      -0.00044      -0.00368
Nuclear contribution   :      0.00406       0.00042       0.00359
                        -----------------------------------------
Total Dipole Moment    :     -0.00008      -0.00001      -0.00009
                        -----------------------------------------
Magnitude (a.u.)       :      0.00012
Magnitude (Debye)      :      0.00031

VIBRATIONAL FREQUENCIES
-----------------------

Scaling factor for frequencies =  1.000000000  (already applied!)

   0:         0.00 cm**-1
   1:         0.00 cm**-1
   2:         0.00 cm**-1
   3:         0.00 cm**-1
   4:         0.00 cm**-1
   5:         0.00 cm**-1
   6:        61.37 cm**-1
   7:        61.42 cm**-1
   8:        61.51 cm**-1
   9:        85.75 cm**-1
  10:        85.77 cm**-1
  11:        85.88 cm**-1
  12:        87.31 cm**-1
  13:        87.52 cm**-1
  14:        87.55 cm**-1
  15:       359.28 cm**-1
  16:       359.29 cm**-1
  17:       359.32 cm**-1
  18:       360.00 cm**-1
  19:       360.02 cm**-1
  20:       360.09 cm**-1
  21:       404.44 cm**-1
  22:       404.45 cm**-1
  23:       424.71 cm**-1
  24:       476.92 cm**-1
  25:       477.00 cm**-1
  26:       477.02 cm**-1
  27:       537.21 cm**-1
  28:       537.23 cm**-1
  29:       537.26 cm**-1
  30:       602.30 cm**-1
  31:       602.33 cm**-1
  32:       602.34 cm**-1
  33:      2085.85 cm**-1
  34:      2085.86 cm**-1
  35:      2085.87 cm**-1
  36:      2111.32 cm**-1
  37:      2111.32 cm**-1
  38:      2206.97 cm**-1

IR SPECTRUM
-----------

 Mode   freq       eps      Int      T**2         TX        TY        TZ
       cm**-1   L/(mol*cm) km/mol    a.u.
----------------------------------------------------------------------------
  6:     61.37   0.000000    0.00  0.000000  ( 0.000118 -0.000074 -0.000030)
  7:     61.42   0.000000    0.00  0.000000  (-0.000087 -0.000019 -0.000145)
  8:     61.51   0.000000    0.00  0.000000  (-0.000020 -0.000028 -0.000046)
  9:     85.75   0.000076    0.38  0.000275  (-0.010207  0.001021  0.013038)
 10:     85.77   0.000076    0.38  0.000275  ( 0.012928  0.003292  0.009862)
 11:     85.88   0.000075    0.38  0.000274  ( 0.001988 -0.016190  0.002829)
 12:     87.31   0.000000    0.00  0.000000  (-0.000005 -0.000002 -0.000019)
 13:     87.52   0.000000    0.00  0.000000  ( 0.000005 -0.000007 -0.000006)
 14:     87.55   0.000000    0.00  0.000000  ( 0.000005  0.000003  0.000004)
 15:    359.28   0.010850   54.83  0.009424  (-0.087096 -0.003482 -0.042733)
 16:    359.29   0.010855   54.86  0.009428  ( 0.041303  0.019427 -0.085702)
 17:    359.32   0.010859   54.87  0.009431  ( 0.011663 -0.095078 -0.015962)
 18:    360.00   0.000000    0.00  0.000000  (-0.000044  0.000168 -0.000090)
 19:    360.02   0.000000    0.00  0.000000  (-0.000054  0.000175 -0.000029)
 20:    360.09   0.000000    0.00  0.000000  (-0.000063 -0.000063 -0.000261)
 21:    404.44   0.000000    0.00  0.000000  (-0.000000  0.000003  0.000010)
 22:    404.45   0.000000    0.00  0.000000  ( 0.000012  0.000000 -0.000003)
 23:    424.71   0.000000    0.00  0.000000  ( 0.000008  0.000001  0.000009)
 24:    476.92   0.000000    0.00  0.000000  (-0.000003  0.000003  0.000021)
 25:    477.00   0.000000    0.00  0.000000  (-0.000000  0.000015  0.000004)
 26:    477.02   0.000000    0.00  0.000000  (-0.000000 -0.000019  0.000001)
 27:    537.21   0.000000    0.00  0.000000  ( 0.000041  0.000020 -0.000000)
 28:    537.23   0.000000    0.00  0.000000  (-0.000012 -0.000031 -0.000022)
 29:    537.26   0.000000    0.00  0.000000  (-0.000019 -0.000008  0.000097)
 30:    602.30   0.016407   82.91  0.008501  ( 0.021800  0.084303  0.030309)
 31:    602.33   0.016396   82.86  0.008495  ( 0.036759  0.020057 -0.082104)
 32:    602.34   0.016401   82.89  0.008497  ( 0.081658 -0.031483  0.028947)
 33:   2085.85   0.407980  2061.76  0.061038  (-0.176353 -0.009536 -0.172762)
 34:   2085.86   0.408154  2062.64  0.061064  ( 0.163497  0.071733 -0.170842)
 35:   2085.87   0.408183  2062.79  0.061068  (-0.056812  0.236265  0.044932)
 36:   2111.32   0.000000    0.00  0.000000  (-0.000038  0.000003  0.000012)
 37:   2111.32   0.000000    0.00  0.000000  (-0.000017 -0.000030  0.000046)
 38:   2206.97   0.000000    0.00  0.000000  ( 0.000005 -0.000003  0.000002)

--------------------------
THERMOCHEMISTRY AT 298.15K
--------------------------

Temperature         ... 298.15 K
Pressure            ... 1.00 atm
Total Mass          ... 351.91 AMU

Throughout the following assumptions are being made:
  (1) The electronic state is orbitally nondegenerate
  (2) There are no thermally accessible electronically excited states
  (3) Hindered rotations indicated by low frequency modes are not
      treated as such but are treated as vibrations and this may
      cause some error
  (4) All equations used are the standard statistical mechanics
      equations for an ideal gas
  (5) All vibrations are strictly harmonic

freq.      61.37  E(vib)   ...       0.51
freq.      61.42  E(vib)   ...       0.51
freq.      61.51  E(vib)   ...       0.51
freq.      85.75  E(vib)   ...       0.48
freq.      85.77  E(vib)   ...       0.48
freq.      85.88  E(vib)   ...       0.48
freq.      87.31  E(vib)   ...       0.48
freq.      87.52  E(vib)   ...       0.48
freq.      87.55  E(vib)   ...       0.48
freq.     359.28  E(vib)   ...       0.22
freq.     359.29  E(vib)   ...       0.22
freq.     359.32  E(vib)   ...       0.22
freq.     360.00  E(vib)   ...       0.22
freq.     360.02  E(vib)   ...       0.22
freq.     360.09  E(vib)   ...       0.22
freq.     404.44  E(vib)   ...       0.19
freq.     404.45  E(vib)   ...       0.19
freq.     424.71  E(vib)   ...       0.18
freq.     476.92  E(vib)   ...       0.15
freq.     477.00  E(vib)   ...       0.15
freq.     477.02  E(vib)   ...       0.15
freq.     537.21  E(vib)   ...       0.12
freq.     537.23  E(vib)   ...       0.12
freq.     537.26  E(vib)   ...       0.12
freq.     602.30  E(vib)   ...       0.10
freq.     602.33  E(vib)   ...       0.10
freq.     602.34  E(vib)   ...       0.10
freq.    2085.85  E(vib)   ...       0.00
freq.    2085.86  E(vib)   ...       0.00
freq.    2085.87  E(vib)   ...       0.00
freq.    2111.32  E(vib)   ...       0.00
freq.    2111.32  E(vib)   ...       0.00
freq.    2206.97  E(vib)   ...       0.00

------------
INNER ENERGY
------------

The inner energy is: U= E(el) + E(ZPE) + E(vib) + E(rot) + E(trans)
    E(el)   - is the total energy from the electronic structure calculation
              = E(kin-el) + E(nuc-el) + E(el-el) + E(nuc-nuc)
    E(ZPE)  - the the zero temperature vibrational energy from the frequency calculation
    E(vib)  - the the finite temperature correction to E(ZPE) due to population
              of excited vibrational states
    E(rot)  - is the rotational thermal energy
    E(trans)- is the translational thermal energy

Summary of contributions to the inner energy U:
Electronic energy                ...   -746.35401118 Eh
Zero point energy                ...      0.04928231 Eh      30.93 kcal/mol
Thermal vibrational correction   ...      0.01179500 Eh       7.40 kcal/mol
Thermal rotational correction    ...      0.00141627 Eh       0.89 kcal/mol
Thermal translational correction ...      0.00141627 Eh       0.89 kcal/mol
-----------------------------------------------------------------------
Total thermal energy                   -746.29010133 Eh

Summary of corrections to the electronic energy:
(perhaps to be used in another calculation)
Total thermal correction                  0.01462754 Eh       9.18 kcal/mol
Non-thermal (ZPE) correction              0.04928231 Eh      30.93 kcal/mol
-----------------------------------------------------------------------
Total correction                          0.06390985 Eh      40.10 kcal/mol

--------
ENTHALPY
--------

The enthalpy is H = U + kB*T
                kB is Boltzmann's constant
Total free energy                 ...   -746.29010133 Eh
Thermal Enthalpy correction       ...      0.00094421 Eh       0.59 kcal/mol
-----------------------------------------------------------------------
Total Enthalpy                    ...   -746.28915712 Eh

Note: Only C1 symmetry has been detected, increase convergence thresholds
      if your molecule has a higher symmetry. Symmetry factor of 1.0 is
      used for the rotational entropy correction.

Note: Rotational entropy computed according to Herzberg
Infrared and Raman Spectra, Chapter V,1, Van Nostrand Reinhold, 1945
Point Group:  C1, Symmetry Number:   1
Rotational constants in cm-1:     0.019142     0.019136     0.019134

Vibrational entropy computed according to the QRRHO of S. Grimme
Chem.Eur.J. 2012 18 9955

-------
ENTROPY
-------

The entropy contributions are T*S = T*(S(el)+S(vib)+S(rot)+S(trans))
     S(el)   - electronic entropy
     S(vib)  - vibrational entropy
     S(rot)  - rotational entropy
     S(trans)- translational entropy
The entropies will be listed as multiplied by the temperature to get
units of energy

Electronic entropy                ...      0.00000000 Eh      0.00 kcal/mol
Vibrational entropy               ...      0.02126170 Eh     13.34 kcal/mol
Rotational entropy                ...      0.01511373 Eh      9.48 kcal/mol
Translational entropy             ...      0.02065320 Eh     12.96 kcal/mol
-----------------------------------------------------------------------
Final entropy term                ...      0.05702864 Eh     35.79 kcal/mol

In case the symmetry of your molecule has not been determined correctly
or in case you have a reason to use a different symmetry number we print
out the resulting rotational entropy values for sn=1,12 :
 --------------------------------------------------------
|  sn= 1 | S(rot)=       0.01511373 Eh      9.48 kcal/mol|
|  sn= 2 | S(rot)=       0.01445927 Eh      9.07 kcal/mol|
|  sn= 3 | S(rot)=       0.01407644 Eh      8.83 kcal/mol|
|  sn= 4 | S(rot)=       0.01380482 Eh      8.66 kcal/mol|
|  sn= 5 | S(rot)=       0.01359413 Eh      8.53 kcal/mol|
|  sn= 6 | S(rot)=       0.01342198 Eh      8.42 kcal/mol|
|  sn= 7 | S(rot)=       0.01327644 Eh      8.33 kcal/mol|
|  sn= 8 | S(rot)=       0.01315036 Eh      8.25 kcal/mol|
|  sn= 9 | S(rot)=       0.01303915 Eh      8.18 kcal/mol|
|  sn=10 | S(rot)=       0.01293967 Eh      8.12 kcal/mol|
|  sn=11 | S(rot)=       0.01284968 Eh      8.06 kcal/mol|
|  sn=12 | S(rot)=       0.01276753 Eh      8.01 kcal/mol|
 --------------------------------------------------------

-------------------
GIBBS FREE ENERGY
-------------------

The Gibbs free energy is G = H - T*S

Total enthalpy                    ...   -746.28915712 Eh
Total entropy correction          ...     -0.05702864 Eh    -35.79 kcal/mol
-----------------------------------------------------------------------
Final Gibbs free energy         ...   -746.34618576 Eh

For completeness - the Gibbs free energy minus the electronic energy
G-E(el)                           ...      0.00782543 Eh      4.91 kcal/mol

                             ****ORCA TERMINATED NORMALLY****
TOTAL RUN TIME: 0 days 0 hours 17 minutes 17 seconds 732 msec
