                         Program Version 5.0.4 -  RELEASE  -
|  1> !B3LYP def2-TZVPD OPT FREQ TightSCF PAL8
|  2>
|  3> %scf
|  4>   MaxIter 300
|  5> end
|  6>
|  7> * xyz 1 4
|  8> Hf        -0.43733        0.82114       -0.00327
|  9> C          1.85069        0.75179       -0.21043
| 10> C         -0.36713        3.11851        0.00002
| 11> C         -2.72538        0.89099        0.20388
| 12> C         -0.50743       -1.47623       -0.00656
| 13> O         -0.33267        4.24599        0.00163
| 14> O          2.97368        0.71783       -0.31146
| 15> O         -0.54180       -2.60370       -0.00817
| 16> O         -3.84828        0.92536        0.30489
| 17> C         -0.64818        0.83067       -2.29202
| 18> C         -0.22660        0.81111        2.28546
| 19> O         -0.75232        0.83529       -3.41517
| 20> O         -0.12255        0.80608        3.40866
| 21> **                         ****END OF INPUT****
 Total Charge           Charge          ....    1
 Multiplicity           Mult            ....    4
 Number of Electrons    NEL             ....   95
FINAL SINGLE POINT ENERGY      -727.720707256212
FINAL SINGLE POINT ENERGY      -727.721043685175
FINAL SINGLE POINT ENERGY      -727.721866161663
FINAL SINGLE POINT ENERGY      -727.721875467586
                    ***********************HURRAY********************

CARTESIAN COORDINATES (ANGSTROEM)
---------------------------------
  Hf    -0.437295    0.821140   -0.003281
  C      1.883193    0.751226   -0.214282
  C     -0.365419    3.151648    0.000264
  C     -2.757765    0.891325    0.207715
  C     -0.509180   -1.509370   -0.006802
  O     -0.331017    4.278161    0.001994
  O      3.005148    0.717618   -0.315673
  O     -0.543790   -2.635876   -0.008471
  O     -3.879711    0.925220    0.309101
  C     -0.650416    0.830666   -2.325131
  C     -0.224274    0.811345    2.318575
  O     -0.753792    0.835187   -3.447398
  O     -0.120981    0.806541    3.440849

 Multiplicity           Mult            ....    4
 Number of Electrons    NEL             ....   95
 Basis Dimension        Dim             ....  505

ORBITAL ENERGIES
----------------
                 SPIN UP ORBITALS
  NO   OCC          E(Eh)            E(eV)
   0   1.0000     -19.398995      -527.8735
   1   1.0000     -19.398991      -527.8734
   2   1.0000     -19.398991      -527.8734
   3   1.0000     -19.398988      -527.8733
   4   1.0000     -19.398979      -527.8731
   5   1.0000     -19.398976      -527.8730
   6   1.0000     -10.463726      -284.7325
   7   1.0000     -10.463725      -284.7324
   8   1.0000     -10.463723      -284.7324
   9   1.0000     -10.463720      -284.7323
  10   1.0000     -10.463697      -284.7317
  11   1.0000     -10.463694      -284.7316
  12   1.0000      -2.635673       -71.7203
  13   1.0000      -1.485336       -40.4181
  14   1.0000      -1.485329       -40.4179
  15   1.0000      -1.485329       -40.4178
  16   1.0000      -1.331710       -36.2377
  17   1.0000      -1.331436       -36.2302
  18   1.0000      -1.331429       -36.2300
  19   1.0000      -1.331427       -36.2300
  20   1.0000      -1.331417       -36.2297
  21   1.0000      -1.331415       -36.2297
  22   1.0000      -0.759147       -20.6574
  23   1.0000      -0.742295       -20.1989
  24   1.0000      -0.742294       -20.1988
  25   1.0000      -0.740121       -20.1397
  26   1.0000      -0.740111       -20.1394
  27   1.0000      -0.740099       -20.1391
  28   1.0000      -0.663508       -18.0550
  29   1.0000      -0.651914       -17.7395
  30   1.0000      -0.651909       -17.7394
  31   1.0000      -0.651903       -17.7392
  32   1.0000      -0.648430       -17.6447
  33   1.0000      -0.648421       -17.6444
  34   1.0000      -0.648408       -17.6441
  35   1.0000      -0.645429       -17.5630
  36   1.0000      -0.645425       -17.5629
  37   1.0000      -0.645413       -17.5626
  38   1.0000      -0.642808       -17.4917
  39   1.0000      -0.642805       -17.4916
  40   1.0000      -0.642803       -17.4915
  41   1.0000      -0.622113       -16.9286
  42   1.0000      -0.622084       -16.9278
  43   1.0000      -0.595313       -16.1993
  44   1.0000      -0.595261       -16.1979
  45   1.0000      -0.595223       -16.1968
  46   1.0000      -0.372359       -10.1324
  47   1.0000      -0.372331       -10.1316
  48   1.0000      -0.372310       -10.1311
  49   0.0000      -0.242955        -6.6111
  50   0.0000      -0.242946        -6.6109
  51   0.0000      -0.242911        -6.6099
  52   0.0000      -0.218358        -5.9418
  53   0.0000      -0.218323        -5.9409

                 SPIN DOWN ORBITALS
  NO   OCC          E(Eh)            E(eV)
   0   1.0000     -19.395501      -527.7784
   1   1.0000     -19.395498      -527.7783
   2   1.0000     -19.395496      -527.7783
   3   1.0000     -19.395495      -527.7782
   4   1.0000     -19.395481      -527.7779
   5   1.0000     -19.395478      -527.7778
   6   1.0000     -10.463427      -284.7243
   7   1.0000     -10.463426      -284.7243
   8   1.0000     -10.463424      -284.7243
   9   1.0000     -10.463421      -284.7242
  10   1.0000     -10.463397      -284.7235
  11   1.0000     -10.463394      -284.7234
  12   1.0000      -2.613898       -71.1278
  13   1.0000      -1.454043       -39.5665
  14   1.0000      -1.454030       -39.5662
  15   1.0000      -1.454021       -39.5659
  16   1.0000      -1.326181       -36.0872
  17   1.0000      -1.325925       -36.0803
  18   1.0000      -1.325915       -36.0800
  19   1.0000      -1.325904       -36.0797
  20   1.0000      -1.325896       -36.0795
  21   1.0000      -1.325886       -36.0792
  22   1.0000      -0.749104       -20.3842
  23   1.0000      -0.735969       -20.0267
  24   1.0000      -0.735963       -20.0266
  25   1.0000      -0.733773       -19.9670
  26   1.0000      -0.733763       -19.9667
  27   1.0000      -0.733749       -19.9663
  28   1.0000      -0.652430       -17.7535
  29   1.0000      -0.641169       -17.4471
  30   1.0000      -0.641161       -17.4469
  31   1.0000      -0.641157       -17.4468
  32   1.0000      -0.638530       -17.3753
  33   1.0000      -0.638516       -17.3749
  34   1.0000      -0.638504       -17.3746
  35   1.0000      -0.635615       -17.2960
  36   1.0000      -0.635604       -17.2957
  37   1.0000      -0.635594       -17.2954
  38   1.0000      -0.633008       -17.2250
  39   1.0000      -0.633004       -17.2249
  40   1.0000      -0.633000       -17.2248
  41   1.0000      -0.614414       -16.7190
  42   1.0000      -0.614356       -16.7175
  43   1.0000      -0.586957       -15.9719
  44   1.0000      -0.586898       -15.9703
  45   1.0000      -0.586865       -15.9694
  46   0.0000      -0.299850        -8.1593
  47   0.0000      -0.299807        -8.1582
  48   0.0000      -0.299714        -8.1556
  49   0.0000      -0.223924        -6.0933
  50   0.0000      -0.223914        -6.0930

MULLIKEN ATOMIC CHARGES AND SPIN POPULATIONS
--------------------------------------------
   0 Hf:    1.393305    1.878958
   1 C :    0.038365    0.073720
   2 C :    0.041936    0.076196
   3 C :    0.038470    0.073729
   4 C :    0.041655    0.076211
   5 O :   -0.104666    0.112461
   6 O :   -0.105584    0.112089
   7 O :   -0.104536    0.112470
   8 O :   -0.105611    0.112098
   9 C :    0.038568    0.073960
  10 C :    0.038589    0.073945
  11 O :   -0.105252    0.112080
  12 O :   -0.105239    0.112083
Sum of atomic charges         :    1.0000000

LOEWDIN ATOMIC CHARGES AND SPIN POPULATIONS
-------------------------------------------
   0 Hf:    0.717860    1.355488
   1 C :   -0.117331    0.163910
   2 C :   -0.117124    0.163818
   3 C :   -0.117338    0.163916
   4 C :   -0.117124    0.163817
   5 O :    0.164215    0.110196
   6 O :    0.164218    0.110326
   7 O :    0.164215    0.110195
   8 O :    0.164219    0.110331
   9 C :   -0.117120    0.163797
  10 C :   -0.117121    0.163798
  11 O :    0.164214    0.110204
  12 O :    0.164214    0.110205

  Mayer bond orders larger than 0.100000
B(  0-Hf,  1-C ) :   0.5068 B(  0-Hf,  2-C ) :   0.5099 B(  0-Hf,  3-C ) :   0.5069
B(  0-Hf,  4-C ) :   0.5098 B(  0-Hf,  9-C ) :   0.5067 B(  0-Hf, 10-C ) :   0.5067
B(  1-C ,  6-O ) :   2.3238 B(  2-C ,  5-O ) :   2.3233 B(  3-C ,  8-O ) :   2.3237
B(  4-C ,  7-O ) :   2.3236 B(  9-C , 11-O ) :   2.3238 B( 10-C , 12-O ) :   2.3238

FINAL SINGLE POINT ENERGY      -727.721875341413

DIPOLE MOMENT
-------------
                                X             Y             Z
Electronic contribution:      0.00303      -0.00009      -0.00070
Nuclear contribution   :     -0.00295       0.00008       0.00068
                        -----------------------------------------
Total Dipole Moment    :      0.00008      -0.00000      -0.00002
                        -----------------------------------------
Magnitude (a.u.)       :      0.00008
Magnitude (Debye)      :      0.00020

VIBRATIONAL FREQUENCIES
-----------------------

Scaling factor for frequencies =  1.000000000  (already applied!)

   0:         0.00 cm**-1
   1:         0.00 cm**-1
   2:         0.00 cm**-1
   3:         0.00 cm**-1
   4:         0.00 cm**-1
   5:         0.00 cm**-1
   6:        37.12 cm**-1
   7:        37.69 cm**-1
   8:        37.92 cm**-1
   9:        54.08 cm**-1
  10:        54.21 cm**-1
  11:        54.36 cm**-1
  12:        57.01 cm**-1
  13:        57.13 cm**-1
  14:        57.23 cm**-1
  15:       250.20 cm**-1
  16:       250.37 cm**-1
  17:       250.84 cm**-1
  18:       272.46 cm**-1
  19:       273.23 cm**-1
  20:       274.69 cm**-1
  21:       277.10 cm**-1
  22:       277.64 cm**-1
  23:       300.61 cm**-1
  24:       321.33 cm**-1
  25:       321.44 cm**-1
  26:       321.49 cm**-1
  27:       347.80 cm**-1
  28:       348.18 cm**-1
  29:       348.25 cm**-1
  30:       373.31 cm**-1
  31:       373.79 cm**-1
  32:       373.98 cm**-1
  33:      2135.88 cm**-1
  34:      2136.01 cm**-1
  35:      2136.02 cm**-1
  36:      2157.53 cm**-1
  37:      2157.68 cm**-1
  38:      2224.20 cm**-1

IR SPECTRUM
-----------

 Mode   freq       eps      Int      T**2         TX        TY        TZ
       cm**-1   L/(mol*cm) km/mol    a.u.
----------------------------------------------------------------------------
  6:     37.12   0.000000    0.00  0.000000  ( 0.000315  0.000061 -0.000065)
  7:     37.69   0.000000    0.00  0.000000  (-0.000070 -0.000135 -0.000137)
  8:     37.92   0.000000    0.00  0.000000  ( 0.000162 -0.000149 -0.000200)
  9:     54.08   0.000164    0.83  0.000945  (-0.004723  0.029101 -0.008713)
 10:     54.21   0.000165    0.83  0.000949  ( 0.005950 -0.007741 -0.029213)
 11:     54.36   0.000165    0.83  0.000947  (-0.029831 -0.006112 -0.004449)
 12:     57.01   0.000000    0.00  0.000000  ( 0.000006 -0.000002  0.000012)
 13:     57.13   0.000000    0.00  0.000000  (-0.000004 -0.000006 -0.000001)
 14:     57.23   0.000000    0.00  0.000000  ( 0.000013  0.000005 -0.000004)
 15:    250.20   0.009880   49.93  0.012323  (-0.003279 -0.110534  0.009695)
 16:    250.37   0.009854   49.80  0.012283  (-0.010118 -0.009375 -0.109965)
 17:    250.84   0.009848   49.77  0.012252  ( 0.110196 -0.004047 -0.009614)
 18:    272.46   0.000000    0.00  0.000000  (-0.000003 -0.000004 -0.000015)
 19:    273.23   0.000000    0.00  0.000000  ( 0.000015  0.000015 -0.000003)
 20:    274.69   0.000000    0.00  0.000000  ( 0.000001  0.000001  0.000003)
 21:    277.10   0.000000    0.00  0.000000  ( 0.000000 -0.000008  0.000001)
 22:    277.64   0.000000    0.00  0.000000  (-0.000006  0.000019 -0.000002)
 23:    300.61   0.000000    0.00  0.000000  (-0.000009  0.000001  0.000003)
 24:    321.33   0.000000    0.00  0.000000  (-0.000003  0.000002 -0.000002)
 25:    321.44   0.000000    0.00  0.000000  (-0.000008  0.000007 -0.000016)
 26:    321.49   0.000000    0.00  0.000000  (-0.000016  0.000011  0.000009)
 27:    347.80   0.000000    0.00  0.000000  (-0.000069 -0.000274  0.000418)
 28:    348.18   0.000000    0.00  0.000000  (-0.000002  0.000282  0.000569)
 29:    348.25   0.000000    0.00  0.000000  (-0.000456 -0.000047 -0.000460)
 30:    373.31   0.004578   23.14  0.003827  (-0.004063  0.061456 -0.005796)
 31:    373.79   0.004622   23.36  0.003859  (-0.016038  0.004597  0.059839)
 32:    373.98   0.004628   23.39  0.003862  ( 0.059950  0.005408  0.015451)
 33:   2135.88   0.362518  1832.02  0.052966  (-0.004870 -0.229979  0.007184)
 34:   2136.01   0.362588  1832.37  0.052973  ( 0.213675 -0.007103 -0.085237)
 35:   2136.02   0.362846  1833.67  0.053010  ( 0.085672  0.004928  0.213650)
 36:   2157.53   0.000000    0.00  0.000000  (-0.000006 -0.000002  0.000014)
 37:   2157.68   0.000000    0.00  0.000000  ( 0.000002  0.000023  0.000013)
 38:   2224.20   0.000000    0.00  0.000000  ( 0.000006  0.000001  0.000002)

--------------------------
THERMOCHEMISTRY AT 298.15K
--------------------------

Temperature         ... 298.15 K
Pressure            ... 1.00 atm
Total Mass          ... 346.55 AMU

Throughout the following assumptions are being made:
  (1) The electronic state is orbitally nondegenerate
      but the spin degeneracy is treated
  (2) There are no thermally accessible electronically excited states
  (3) Hindered rotations indicated by low frequency modes are not
      treated as such but are treated as vibrations and this may
      cause some error
  (4) All equations used are the standard statistical mechanics
      equations for an ideal gas
  (5) All vibrations are strictly harmonic

freq.      37.12  E(vib)   ...       0.54
freq.      37.69  E(vib)   ...       0.54
freq.      37.92  E(vib)   ...       0.54
freq.      54.08  E(vib)   ...       0.52
freq.      54.21  E(vib)   ...       0.52
freq.      54.36  E(vib)   ...       0.52
freq.      57.01  E(vib)   ...       0.51
freq.      57.13  E(vib)   ...       0.51
freq.      57.23  E(vib)   ...       0.51
freq.     250.20  E(vib)   ...       0.31
freq.     250.37  E(vib)   ...       0.30
freq.     250.84  E(vib)   ...       0.30
freq.     272.46  E(vib)   ...       0.29
freq.     273.23  E(vib)   ...       0.29
freq.     274.69  E(vib)   ...       0.28
freq.     277.10  E(vib)   ...       0.28
freq.     277.64  E(vib)   ...       0.28
freq.     300.61  E(vib)   ...       0.26
freq.     321.33  E(vib)   ...       0.25
freq.     321.44  E(vib)   ...       0.25
freq.     321.49  E(vib)   ...       0.25
freq.     347.80  E(vib)   ...       0.23
freq.     348.18  E(vib)   ...       0.23
freq.     348.25  E(vib)   ...       0.23
freq.     373.31  E(vib)   ...       0.21
freq.     373.79  E(vib)   ...       0.21
freq.     373.98  E(vib)   ...       0.21
freq.    2135.88  E(vib)   ...       0.00
freq.    2136.01  E(vib)   ...       0.00
freq.    2136.02  E(vib)   ...       0.00
freq.    2157.53  E(vib)   ...       0.00
freq.    2157.68  E(vib)   ...       0.00
freq.    2224.20  E(vib)   ...       0.00

------------
INNER ENERGY
------------

The inner energy is: U= E(el) + E(ZPE) + E(vib) + E(rot) + E(trans)
    E(el)   - is the total energy from the electronic structure calculation
              = E(kin-el) + E(nuc-el) + E(el-el) + E(nuc-nuc)
    E(ZPE)  - the the zero temperature vibrational energy from the frequency calculation
    E(vib)  - the the finite temperature correction to E(ZPE) due to population
              of excited vibrational states
    E(rot)  - is the rotational thermal energy
    E(trans)- is the translational thermal energy

Summary of contributions to the inner energy U:
Electronic energy                ...   -727.72187534 Eh
Zero point energy                ...      0.04317305 Eh      27.09 kcal/mol
Thermal vibrational correction   ...      0.01494247 Eh       9.38 kcal/mol
Thermal rotational correction    ...      0.00141627 Eh       0.89 kcal/mol
Thermal translational correction ...      0.00141627 Eh       0.89 kcal/mol
-----------------------------------------------------------------------
Total thermal energy                   -727.66092728 Eh

Summary of corrections to the electronic energy:
(perhaps to be used in another calculation)
Total thermal correction                  0.01777501 Eh      11.15 kcal/mol
Non-thermal (ZPE) correction              0.04317305 Eh      27.09 kcal/mol
-----------------------------------------------------------------------
Total correction                          0.06094806 Eh      38.25 kcal/mol

--------
ENTHALPY
--------

The enthalpy is H = U + kB*T
                kB is Boltzmann's constant
Total free energy                 ...   -727.66092728 Eh
Thermal Enthalpy correction       ...      0.00094421 Eh       0.59 kcal/mol
-----------------------------------------------------------------------
Total Enthalpy                    ...   -727.65998307 Eh

Note: Only C1 symmetry has been detected, increase convergence thresholds
      if your molecule has a higher symmetry. Symmetry factor of 1.0 is
      used for the rotational entropy correction.

Note: Rotational entropy computed according to Herzberg
Infrared and Raman Spectra, Chapter V,1, Van Nostrand Reinhold, 1945
Point Group:  C1, Symmetry Number:   1
Rotational constants in cm-1:     0.016431     0.016420     0.016410

Vibrational entropy computed according to the QRRHO of S. Grimme
Chem.Eur.J. 2012 18 9955

-------
ENTROPY
-------

The entropy contributions are T*S = T*(S(el)+S(vib)+S(rot)+S(trans))
     S(el)   - electronic entropy
     S(vib)  - vibrational entropy
     S(rot)  - rotational entropy
     S(trans)- translational entropy
The entropies will be listed as multiplied by the temperature to get
units of energy

Electronic entropy                ...      0.00130891 Eh      0.82 kcal/mol
Vibrational entropy               ...      0.02752706 Eh     17.27 kcal/mol
Rotational entropy                ...      0.01533058 Eh      9.62 kcal/mol
Translational entropy             ...      0.02063146 Eh     12.95 kcal/mol
-----------------------------------------------------------------------
Final entropy term                ...      0.06479801 Eh     40.66 kcal/mol

In case the symmetry of your molecule has not been determined correctly
or in case you have a reason to use a different symmetry number we print
out the resulting rotational entropy values for sn=1,12 :
 --------------------------------------------------------
|  sn= 1 | S(rot)=       0.01533058 Eh      9.62 kcal/mol|
|  sn= 2 | S(rot)=       0.01467612 Eh      9.21 kcal/mol|
|  sn= 3 | S(rot)=       0.01429329 Eh      8.97 kcal/mol|
|  sn= 4 | S(rot)=       0.01402166 Eh      8.80 kcal/mol|
|  sn= 5 | S(rot)=       0.01381098 Eh      8.67 kcal/mol|
|  sn= 6 | S(rot)=       0.01363883 Eh      8.56 kcal/mol|
|  sn= 7 | S(rot)=       0.01349329 Eh      8.47 kcal/mol|
|  sn= 8 | S(rot)=       0.01336721 Eh      8.39 kcal/mol|
|  sn= 9 | S(rot)=       0.01325600 Eh      8.32 kcal/mol|
|  sn=10 | S(rot)=       0.01315652 Eh      8.26 kcal/mol|
|  sn=11 | S(rot)=       0.01306653 Eh      8.20 kcal/mol|
|  sn=12 | S(rot)=       0.01298437 Eh      8.15 kcal/mol|
 --------------------------------------------------------

-------------------
GIBBS FREE ENERGY
-------------------

The Gibbs free energy is G = H - T*S

Total enthalpy                    ...   -727.65998307 Eh
Total entropy correction          ...     -0.06479801 Eh    -40.66 kcal/mol
-----------------------------------------------------------------------
Final Gibbs free energy         ...   -727.72478108 Eh

For completeness - the Gibbs free energy minus the electronic energy
G-E(el)                           ...     -0.00290574 Eh     -1.82 kcal/mol

                             ****ORCA TERMINATED NORMALLY****
TOTAL RUN TIME: 0 days 0 hours 41 minutes 48 seconds 959 msec
