                         Program Version 5.0.4 -  RELEASE  -
|  1> # input to generate an atomic fitting density for Hf
|  2> # this file is used internally by ORCA
|  3> #
|  4> # atomic ground state (S=3): 1s2 2s2 2p6 3s2 3p6 4s2 3d10 4p6 5s2 4d10 5p6 6s2 4f14 5d2
|  5> #
|  6> ! RHF AllowRHF def2-SVP def2/J  NoMulliken NoLoewdin NoMayer NoPrintMOs
|  7>
|  8> %output print[p_atomdensfit] 2 end
|  9>
| 10> %scf
| 11>   guess hcore
| 12>   maxiter 1000
| 13>   maxdisk 500000
| 14>   SCFMode Conventional
| 15>   lshift 0.200000
| 16>   hftyp rohf
| 17>   rohf_case sahf
| 18>   rohf_numop   2
| 19>   rohf_norb[1] 5
| 20>   rohf_nel[1]  2
| 21> end
| 22>
| 23> %basis
| 24>   NewECP 72
| 25>     N_core 60
| 26>     lmax f
| 27>     s 3
| 28>       1      14.7699590000   1499.2847107000  2
| 29>       2       7.3849794000     40.2821014000  2
| 30>       3       1.7857698000    -10.0467225000  2
| 31>     p 3
| 32>       1       9.8494895000    397.7330053000  2
| 33>       2       4.9247445000     19.3164059000  2
| 34>       3       1.7857698000    -10.0467225000  2
| 35>     d 3
| 36>       1       6.0967564000    101.3298053000  2
| 37>       2       3.0483782000      5.8734382000  2
| 38>       3       1.7857698000    -10.0467225000  2
| 39>     f 1
| 40>       1       1.7857698000     10.0467225000  2
| 41>   end
| 42>   NewGTO 72
| 43>     s 4
| 44>      1      24.0000000000      1.7983267384
| 45>      2      16.0000000000    -32.5552184156
| 46>      3      14.4000000000     39.9993612676
| 47>      4      10.3045046670     -8.4530085040
| 48>     s 1
| 49>      1       3.8426510824      1.0000000000
| 50>     s 1
| 51>      1       0.9329602905      1.0000000000
| 52>     s 1
| 53>      1       0.4261532094      1.0000000000
| 54>     s 1
| 55>      1       0.0933665602      1.0000000000
| 56>     s 1
| 57>      1       0.0355328951      1.0000000000
| 58>     p 4
| 59>      1      17.0000000000     -0.0706222769
| 60>      2      11.7380720970      0.2361945505
| 61>      3       4.9203967161     -0.6575695889
| 62>      4       1.1251726138      1.2120857927
| 63>     p 1
| 64>      1       0.5422011406      1.0000000000
| 65>     p 1
| 66>      1       0.2565944788      1.0000000000
| 67>     p 1
| 68>      1       0.0650000000      1.0000000000
| 69>     d 3
| 70>      1       3.9820623229     -0.0775724506
| 71>      2       1.3077987772      0.3364388823
| 72>      3       0.5327231030      0.7581507288
| 73>     d 1
| 74>      1       0.2056495449      1.0000000000
| 75>     d 1
| 76>      1       0.0730998588      1.0000000000
| 77>     f 1
| 78>      1       0.3154700000      1.0000000000
| 79>     p 1
| 80>      1       0.0271417337      1.0000000000
| 81>   end
| 82>   NewAuxGTO 72
| 83>     S 1
| 84>      1 1310.72 1.0
| 85>     S 1
| 86>      1  655.36 1.0
| 87>     S 1
| 88>      1  327.68 1.0
| 89>     S 1
| 90>      1  163.84 1.0
| 91>     S 1
| 92>      1   81.82 1.0
| 93>     S 1
| 94>      1   40.96 1.0
| 95>     S 1
| 96>      1   20.48 1.0
| 97>     S 1
| 98>      1   10.24 1.0
| 99>     S 1
|100>      1    5.12 1.0
|101>     S 1
|102>      1    2.56 1.0
|103>     S 1
|104>      1    1.28 1.0
|105>     S 1
|106>      1    0.64 1.0
|107>     S 1
|108>      1    0.32 1.0
|109>     S 1
|110>      1    0.16 1.0
|111>     S 1
|112>      1    0.08 1.0
|113>     S 1
|114>      1    0.04 1.0
|115>     S 1
|116>      1    0.02 1.0
|117>     S 1
|118>      1    0.01 1.0
|119>   end
|120> end
|121>
|122> * xyz 0 3
|123> 72  0.0 0.0 0.0
|124> *
|125>
|126>
|127>                          ****END OF INPUT****

CARTESIAN COORDINATES (ANGSTROEM)
---------------------------------
  Hf     0.000000    0.000000    0.000000

 Total Charge           Charge          ....    0
 Multiplicity           Mult            ....    3
 Number of Electrons    NEL             ....   12
 Basis Dimension        Dim             ....   43

ORBITAL ENERGIES
----------------

  NO   OCC          E(Eh)            E(eV)
   0   2.0000      -2.810371       -76.4741
   1   2.0000      -1.506240       -40.9869
   2   2.0000      -1.492075       -40.6014
   3   2.0000      -1.491441       -40.5842
   4   2.0000      -0.166374        -4.5273
   5   0.4000      -0.269691        -7.3387
   6   0.4000      -0.183927        -5.0049
   7   0.4000      -0.182729        -4.9723
   8   0.4000      -0.148861        -4.0507
   9   0.4000      -0.146418        -3.9842
  10   0.0000      -0.081024        -2.2048
  11   0.0000      -0.080716        -2.1964
  12   0.0000      -0.095135        -2.5888
  13   0.0000       0.024856         0.6764
  14   0.0000       0.025232         0.6866

FINAL SINGLE POINT ENERGY       -47.168467687040

DIPOLE MOMENT
-------------
                                X             Y             Z
Electronic contribution:     -0.00000      -0.00000      -0.00000
Nuclear contribution   :      0.00000       0.00000       0.00000
                        -----------------------------------------
Total Dipole Moment    :     -0.00000      -0.00000      -0.00000
                        -----------------------------------------
Magnitude (a.u.)       :      0.00000
Magnitude (Debye)      :      0.00000

Rotational constants in cm-1:     0.000000     0.000000     0.000000
Rotational constants in MHz :     0.000000     0.000000     0.000000

                             ****ORCA TERMINATED NORMALLY****
TOTAL RUN TIME: 0 days 0 hours 0 minutes 3 seconds 702 msec
