                         Program Version 5.0.4 -  RELEASE  -
|  1> # input to generate an atomic fitting density for Mo
|  2> # this file is used internally by ORCA
|  3> #
|  4> # atomic ground state (S=5): 1s2 2s2 2p6 3s2 3p6 4s2 3d10 4p6 5s2 4d4
|  5> #
|  6> ! RHF AllowRHF def2-SVP def2/J  NoMulliken NoLoewdin NoMayer NoPrintMOs
|  7>
|  8> %output print[p_atomdensfit] 2 end
|  9>
| 10> %scf
| 11>   guess hcore
| 12>   maxiter 1000
| 13>   maxdisk 500000
| 14>   SCFMode Conventional
| 15>   lshift 0.600000
| 16>   hftyp rohf
| 17>   rohf_case sahf
| 18>   rohf_numop   2
| 19>   rohf_norb[1] 5
| 20>   rohf_nel[1]  4
| 21> end
| 22>
| 23> %basis
| 24>   NewECP 42
| 25>     N_core 28
| 26>     lmax f
| 27>     s 4
| 28>       1       9.7145938000    180.1031085000  2
| 29>       2       4.6805004000     24.9972279000  2
| 30>       3       9.4500000000     24.8051771000  2
| 31>       4       4.7200000000      4.1537815000  2
| 32>     p 4
| 33>       1       8.1421366000    123.7727523000  2
| 34>       2       4.6259863000     19.5302280000  2
| 35>       3       9.4500000000     24.8051771000  2
| 36>       4       4.7200000000      4.1537815000  2
| 37>     d 4
| 38>       1       6.6184148000     48.3750223000  2
| 39>       2       3.2487516000      8.8920527000  2
| 40>       3       9.4500000000     24.8051771000  2
| 41>       4       4.7200000000      4.1537815000  2
| 42>     f 2
| 43>       1       9.4500000000    -24.8051771000  2
| 44>       2       4.7200000000     -4.1537815000  2
| 45>   end
| 46>   NewGTO 42
| 47>     s 2
| 48>      1      14.0000000000     -2.0770233737
| 49>      2      12.5000000000      3.0616178399
| 50>     s 1
| 51>      1       4.0921501803      1.0000000000
| 52>     s 1
| 53>      1       0.9705360259      1.0000000000
| 54>     s 1
| 55>      1       0.4421762017      1.0000000000
| 56>     s 1
| 57>      1       0.0929150243      1.0000000000
| 58>     s 1
| 59>      1       0.0350163144      1.0000000000
| 60>     p 4
| 61>      1       8.8931117915      0.0830010811
| 62>      2       5.4689112270     -0.2792276027
| 63>      3       1.3548473007      0.5492197283
| 64>      4       0.6549486746      0.5789213489
| 65>     p 1
| 66>      1       0.3042819747      1.0000000000
| 67>     p 1
| 68>      1       0.1000000000      1.0000000000
| 69>     p 1
| 70>      1       0.0330000000      1.0000000000
| 71>     d 3
| 72>      1       5.0044445497     -0.0359172347
| 73>      2       1.7736823324      0.3487122377
| 74>      3       0.7695059170      0.7275979769
| 75>     d 1
| 76>      1       0.3153087894      1.0000000000
| 77>     d 1
| 78>      1       0.1175437439      1.0000000000
| 79>   end
| 80>   NewAuxGTO 42
| 81>     S 1
| 82>      1 1310.72 1.0
| 83>     S 1
| 84>      1  655.36 1.0
| 85>     S 1
| 86>      1  327.68 1.0
| 87>     S 1
| 88>      1  163.84 1.0
| 89>     S 1
| 90>      1   81.82 1.0
| 91>     S 1
| 92>      1   40.96 1.0
| 93>     S 1
| 94>      1   20.48 1.0
| 95>     S 1
| 96>      1   10.24 1.0
| 97>     S 1
| 98>      1    5.12 1.0
| 99>     S 1
|100>      1    2.56 1.0
|101>     S 1
|102>      1    1.28 1.0
|103>     S 1
|104>      1    0.64 1.0
|105>     S 1
|106>      1    0.32 1.0
|107>     S 1
|108>      1    0.16 1.0
|109>     S 1
|110>      1    0.08 1.0
|111>     S 1
|112>      1    0.04 1.0
|113>     S 1
|114>      1    0.02 1.0
|115>     S 1
|116>      1    0.01 1.0
|117>   end
|118> end
|119>
|120> * xyz 0 5
|121> 42  0.0 0.0 0.0
|122> *
|123>
|124>
|125>                          ****END OF INPUT****

CARTESIAN COORDINATES (ANGSTROEM)
---------------------------------
  Mo     0.000000    0.000000    0.000000

 Total Charge           Charge          ....    0
 Multiplicity           Mult            ....    5
 Number of Electrons    NEL             ....   14
 Basis Dimension        Dim             ....   33

ORBITAL ENERGIES
----------------

  NO   OCC          E(Eh)            E(eV)
   0   2.0000      -3.060332       -83.2759
   1   2.0000      -1.903617       -51.8000
   2   2.0000      -1.902875       -51.7799
   3   2.0000      -1.901531       -51.7433
   4   2.0000      -0.367944       -10.0123
   5   0.8000      -0.405189       -11.0257
   6   0.8000      -0.402841       -10.9619
   7   0.8000      -0.401343       -10.9211
   8   0.8000      -0.302638        -8.2352
   9   0.8000      -0.167630        -4.5614
  10   0.0000      -0.023397        -0.6367
  11   0.0000      -0.022833        -0.6213
  12   0.0000      -0.046019        -1.2523
  13   0.0000       0.097276         2.6470
  14   0.0000       0.136732         3.7207

FINAL SINGLE POINT ENERGY       -67.358246077131

DIPOLE MOMENT
-------------
                                X             Y             Z
Electronic contribution:      0.00000      -0.00000       0.00000
Nuclear contribution   :      0.00000       0.00000       0.00000
                        -----------------------------------------
Total Dipole Moment    :      0.00000      -0.00000       0.00000
                        -----------------------------------------
Magnitude (a.u.)       :      0.00000
Magnitude (Debye)      :      0.00000

Rotational constants in cm-1:     0.000000     0.000000     0.000000
Rotational constants in MHz :     0.000000     0.000000     0.000000

                             ****ORCA TERMINATED NORMALLY****
TOTAL RUN TIME: 0 days 0 hours 0 minutes 2 seconds 749 msec
