                         Program Version 5.0.4 -  RELEASE  -
|  1> !B3LYP def2-TZVPD OPT FREQ TightSCF PAL8
|  2>
|  3> %scf
|  4>   MaxIter 300
|  5> end
|  6>
|  7> * xyz 0 1
|  8> Mo        -1.16223        1.46231        0.00440
|  9> C         -1.14093        3.60205        0.19585
| 10> C          0.98556        1.43752        0.04741
| 11> C         -3.31010        1.48732       -0.03858
| 12> C         -1.18366       -0.67745       -0.18705
| 13> O         -1.12965        4.72557        0.29572
| 14> O          2.11331        1.42466        0.06986
| 15> O         -1.19503       -1.80094       -0.28692
| 16> O         -4.43774        1.50041       -0.06100
| 17> C         -1.11654        1.65584       -2.13477
| 18> C         -1.20787        1.26853        2.14358
| 19> O         -1.09237        1.75804       -3.25788
| 20> O         -1.23196        1.16609        3.26663
| 21> **                         ****END OF INPUT****
 Total Charge           Charge          ....    0
 Multiplicity           Mult            ....    1
 Number of Electrons    NEL             ....   98
FINAL SINGLE POINT ENERGY      -748.283159319729
FINAL SINGLE POINT ENERGY      -748.289647296172
FINAL SINGLE POINT ENERGY      -748.293571987905
FINAL SINGLE POINT ENERGY      -748.293657473080
FINAL SINGLE POINT ENERGY      -748.293668315019
                    ***********************HURRAY********************

CARTESIAN COORDINATES (ANGSTROEM)
---------------------------------
  Mo    -1.162251    1.462301    0.004406
  C     -1.141853    3.528806    0.190949
  C      0.911307    1.437888    0.046824
  C     -3.235821    1.486807   -0.038009
  C     -1.182670   -0.604207   -0.182147
  O     -1.130706    4.663316    0.291336
  O      2.050063    1.424848    0.069181
  O     -1.193852   -1.738715   -0.282545
  O     -4.374575    1.500001   -0.060358
  C     -1.118538    1.649095   -2.061619
  C     -1.205922    1.275420    2.070431
  O     -1.094737    1.750420   -3.195849
  O     -1.229654    1.173970    3.204651

 Multiplicity           Mult            ....    1
 Number of Electrons    NEL             ....   98
 Basis Dimension        Dim             ....  502

ORBITAL ENERGIES
----------------

  NO   OCC          E(Eh)            E(eV)
   0   2.0000     -19.226264      -523.1732
   1   2.0000     -19.226262      -523.1732
   2   2.0000     -19.226252      -523.1729
   3   2.0000     -19.226251      -523.1729
   4   2.0000     -19.226161      -523.1704
   5   2.0000     -19.226158      -523.1704
   6   2.0000     -10.305580      -280.4291
   7   2.0000     -10.305578      -280.4290
   8   2.0000     -10.305567      -280.4287
   9   2.0000     -10.305566      -280.4287
  10   2.0000     -10.305480      -280.4264
  11   2.0000     -10.305478      -280.4263
  12   2.0000      -2.575689       -70.0881
  13   2.0000      -1.578516       -42.9536
  14   2.0000      -1.578487       -42.9528
  15   2.0000      -1.578476       -42.9525
  16   2.0000      -1.160219       -31.5712
  17   2.0000      -1.159660       -31.5559
  18   2.0000      -1.159651       -31.5557
  19   2.0000      -1.159539       -31.5527
  20   2.0000      -1.159524       -31.5522
  21   2.0000      -1.159442       -31.5500
  22   2.0000      -0.607803       -16.5392
  23   2.0000      -0.584462       -15.9040
  24   2.0000      -0.584430       -15.9031
  25   2.0000      -0.579617       -15.7722
  26   2.0000      -0.579603       -15.7718
  27   2.0000      -0.579531       -15.7698
  28   2.0000      -0.506719       -13.7885
  29   2.0000      -0.490686       -13.3522
  30   2.0000      -0.490665       -13.3517
  31   2.0000      -0.490656       -13.3514
  32   2.0000      -0.484013       -13.1707
  33   2.0000      -0.483992       -13.1701
  34   2.0000      -0.483973       -13.1696
  35   2.0000      -0.479898       -13.0587
  36   2.0000      -0.479851       -13.0574
  37   2.0000      -0.476947       -12.9784
  38   2.0000      -0.476905       -12.9773
  39   2.0000      -0.476893       -12.9769
  40   2.0000      -0.472097       -12.8464
  41   2.0000      -0.472046       -12.8450
  42   2.0000      -0.472042       -12.8449
  43   2.0000      -0.422304       -11.4915
  44   2.0000      -0.422270       -11.4906
  45   2.0000      -0.422195       -11.4885
  46   2.0000      -0.253636        -6.9018
  47   2.0000      -0.253615        -6.9012
  48   2.0000      -0.253569        -6.9000
  49   0.0000      -0.073451        -1.9987
  50   0.0000      -0.073425        -1.9980
  51   0.0000      -0.073417        -1.9978
  52   0.0000      -0.049676        -1.3518
  53   0.0000      -0.049641        -1.3508

MULLIKEN ATOMIC CHARGES
-----------------------
   0 Mo:    0.370948
   1 C :    0.144616
   2 C :    0.144495
   3 C :    0.144590
   4 C :    0.144593
   5 O :   -0.206314
   6 O :   -0.206568
   7 O :   -0.206309
   8 O :   -0.206610
   9 C :    0.144622
  10 C :    0.144608
  11 O :   -0.206329
  12 O :   -0.206341
Sum of atomic charges:   -0.0000000

LOEWDIN ATOMIC CHARGES
----------------------
   0 Mo:    0.593058
   1 C :   -0.214119
   2 C :   -0.214769
   3 C :   -0.214760
   4 C :   -0.214116
   5 O :    0.115547
   6 O :    0.115451
   7 O :    0.115547
   8 O :    0.115452
   9 C :   -0.214193
  10 C :   -0.214188
  11 O :    0.115544
  12 O :    0.115545

  Mayer bond orders larger than 0.100000
B(  0-Mo,  1-C ) :   0.8608 B(  0-Mo,  2-C ) :   0.8611 B(  0-Mo,  3-C ) :   0.8612
B(  0-Mo,  4-C ) :   0.8607 B(  0-Mo,  9-C ) :   0.8609 B(  0-Mo, 10-C ) :   0.8608
B(  1-C ,  5-O ) :   2.0911 B(  2-C ,  6-O ) :   2.0901 B(  3-C ,  8-O ) :   2.0900
B(  4-C ,  7-O ) :   2.0911 B(  9-C , 11-O ) :   2.0908 B( 10-C , 12-O ) :   2.0907

FINAL SINGLE POINT ENERGY      -748.293668142147

DIPOLE MOMENT
-------------
                                X             Y             Z
Electronic contribution:     -0.00022      -0.00016       0.00011
Nuclear contribution   :      0.00019       0.00014      -0.00010
                        -----------------------------------------
Total Dipole Moment    :     -0.00003      -0.00002       0.00001
                        -----------------------------------------
Magnitude (a.u.)       :      0.00004
Magnitude (Debye)      :      0.00009

VIBRATIONAL FREQUENCIES
-----------------------

Scaling factor for frequencies =  1.000000000  (already applied!)

   0:         0.00 cm**-1
   1:         0.00 cm**-1
   2:         0.00 cm**-1
   3:         0.00 cm**-1
   4:         0.00 cm**-1
   5:         0.00 cm**-1
   6:        57.23 cm**-1
   7:        57.33 cm**-1
   8:        57.38 cm**-1
   9:        81.06 cm**-1
  10:        81.11 cm**-1
  11:        81.17 cm**-1
  12:        84.39 cm**-1
  13:        84.41 cm**-1
  14:        84.49 cm**-1
  15:       349.50 cm**-1
  16:       349.57 cm**-1
  17:       349.77 cm**-1
  18:       371.08 cm**-1
  19:       371.20 cm**-1
  20:       372.02 cm**-1
  21:       387.58 cm**-1
  22:       388.08 cm**-1
  23:       403.27 cm**-1
  24:       487.01 cm**-1
  25:       487.09 cm**-1
  26:       487.14 cm**-1
  27:       525.19 cm**-1
  28:       525.44 cm**-1
  29:       525.45 cm**-1
  30:       612.57 cm**-1
  31:       612.79 cm**-1
  32:       612.82 cm**-1
  33:      2059.24 cm**-1
  34:      2059.53 cm**-1
  35:      2059.56 cm**-1
  36:      2084.63 cm**-1
  37:      2084.77 cm**-1
  38:      2179.94 cm**-1

IR SPECTRUM
-----------

 Mode   freq       eps      Int      T**2         TX        TY        TZ
       cm**-1   L/(mol*cm) km/mol    a.u.
----------------------------------------------------------------------------
  6:     57.23   0.000000    0.00  0.000000  ( 0.000032  0.000042  0.000142)
  7:     57.33   0.000000    0.00  0.000000  (-0.000035 -0.000106  0.000065)
  8:     57.38   0.000000    0.00  0.000000  ( 0.000014 -0.000003  0.000012)
  9:     81.06   0.000000    0.00  0.000000  (-0.000003  0.000003  0.000000)
 10:     81.11   0.000000    0.00  0.000000  ( 0.000001 -0.000001 -0.000005)
 11:     81.17   0.000000    0.00  0.000000  ( 0.000000 -0.000003 -0.000004)
 12:     84.39   0.000302    1.53  0.001117  ( 0.026017 -0.002394 -0.020836)
 13:     84.41   0.000303    1.53  0.001120  ( 0.002488  0.033363 -0.000700)
 14:     84.49   0.000302    1.53  0.001117  (-0.020775  0.000997 -0.026157)
 15:    349.50   0.000000    0.00  0.000000  (-0.000002  0.000001 -0.000000)
 16:    349.57   0.000000    0.00  0.000000  ( 0.000000 -0.000000  0.000002)
 17:    349.77   0.000000    0.00  0.000000  ( 0.000000  0.000000 -0.000000)
 18:    371.08   0.010863   54.90  0.009136  ( 0.000427  0.092128  0.025452)
 19:    371.20   0.010867   54.92  0.009136  ( 0.000402  0.025550 -0.092104)
 20:    372.02   0.010829   54.72  0.009083  ( 0.095305 -0.000533  0.000336)
 21:    387.58   0.000000    0.00  0.000000  (-0.000012  0.000017  0.000012)
 22:    388.08   0.000000    0.00  0.000000  (-0.000025 -0.000019 -0.000010)
 23:    403.27   0.000000    0.00  0.000000  (-0.000012 -0.000004  0.000005)
 24:    487.01   0.000000    0.00  0.000000  ( 0.000000  0.000001  0.000006)
 25:    487.09   0.000000    0.00  0.000000  ( 0.000008  0.000000 -0.000002)
 26:    487.14   0.000000    0.00  0.000000  ( 0.000001 -0.000001  0.000004)
 27:    525.19   0.000000    0.00  0.000000  (-0.000062  0.000003  0.000002)
 28:    525.44   0.000000    0.00  0.000000  (-0.000148  0.000349  0.000121)
 29:    525.45   0.000000    0.00  0.000000  ( 0.000069  0.000015 -0.000203)
 30:    612.57   0.020469  103.44  0.010428  (-0.101208  0.009431 -0.009777)
 31:    612.79   0.020399  103.09  0.010388  (-0.013477 -0.074356  0.068394)
 32:    612.82   0.020443  103.31  0.010410  ( 0.000747 -0.069137 -0.075031)
 33:   2059.24   0.414839  2096.43  0.062866  (-0.250462  0.004870 -0.010525)
 34:   2059.53   0.414402  2094.22  0.062791  (-0.000887  0.218668  0.122370)
 35:   2059.56   0.414768  2096.07  0.062845  ( 0.011535  0.122407 -0.218469)
 36:   2084.63   0.000000    0.00  0.000000  ( 0.000022 -0.000019  0.000003)
 37:   2084.77   0.000000    0.00  0.000000  (-0.000008  0.000005 -0.000010)
 38:   2179.94   0.000000    0.00  0.000000  ( 0.000001  0.000000 -0.000000)

--------------------------
THERMOCHEMISTRY AT 298.15K
--------------------------

Temperature         ... 298.15 K
Pressure            ... 1.00 atm
Total Mass          ... 264.00 AMU

Throughout the following assumptions are being made:
  (1) The electronic state is orbitally nondegenerate
  (2) There are no thermally accessible electronically excited states
  (3) Hindered rotations indicated by low frequency modes are not
      treated as such but are treated as vibrations and this may
      cause some error
  (4) All equations used are the standard statistical mechanics
      equations for an ideal gas
  (5) All vibrations are strictly harmonic

freq.      57.23  E(vib)   ...       0.51
freq.      57.33  E(vib)   ...       0.51
freq.      57.38  E(vib)   ...       0.51
freq.      81.06  E(vib)   ...       0.48
freq.      81.11  E(vib)   ...       0.48
freq.      81.17  E(vib)   ...       0.48
freq.      84.39  E(vib)   ...       0.48
freq.      84.41  E(vib)   ...       0.48
freq.      84.49  E(vib)   ...       0.48
freq.     349.50  E(vib)   ...       0.23
freq.     349.57  E(vib)   ...       0.23
freq.     349.77  E(vib)   ...       0.23
freq.     371.08  E(vib)   ...       0.21
freq.     371.20  E(vib)   ...       0.21
freq.     372.02  E(vib)   ...       0.21
freq.     387.58  E(vib)   ...       0.20
freq.     388.08  E(vib)   ...       0.20
freq.     403.27  E(vib)   ...       0.19
freq.     487.01  E(vib)   ...       0.15
freq.     487.09  E(vib)   ...       0.15
freq.     487.14  E(vib)   ...       0.15
freq.     525.19  E(vib)   ...       0.13
freq.     525.44  E(vib)   ...       0.13
freq.     525.45  E(vib)   ...       0.13
freq.     612.57  E(vib)   ...       0.10
freq.     612.79  E(vib)   ...       0.10
freq.     612.82  E(vib)   ...       0.10
freq.    2059.24  E(vib)   ...       0.00
freq.    2059.53  E(vib)   ...       0.00
freq.    2059.56  E(vib)   ...       0.00
freq.    2084.63  E(vib)   ...       0.00
freq.    2084.77  E(vib)   ...       0.00
freq.    2179.94  E(vib)   ...       0.00

------------
INNER ENERGY
------------

The inner energy is: U= E(el) + E(ZPE) + E(vib) + E(rot) + E(trans)
    E(el)   - is the total energy from the electronic structure calculation
              = E(kin-el) + E(nuc-el) + E(el-el) + E(nuc-nuc)
    E(ZPE)  - the the zero temperature vibrational energy from the frequency calculation
    E(vib)  - the the finite temperature correction to E(ZPE) due to population
              of excited vibrational states
    E(rot)  - is the rotational thermal energy
    E(trans)- is the translational thermal energy

Summary of contributions to the inner energy U:
Electronic energy                ...   -748.29366814 Eh
Zero point energy                ...      0.04878422 Eh      30.61 kcal/mol
Thermal vibrational correction   ...      0.01189823 Eh       7.47 kcal/mol
Thermal rotational correction    ...      0.00141627 Eh       0.89 kcal/mol
Thermal translational correction ...      0.00141627 Eh       0.89 kcal/mol
-----------------------------------------------------------------------
Total thermal energy                   -748.23015315 Eh

Summary of corrections to the electronic energy:
(perhaps to be used in another calculation)
Total thermal correction                  0.01473077 Eh       9.24 kcal/mol
Non-thermal (ZPE) correction              0.04878422 Eh      30.61 kcal/mol
-----------------------------------------------------------------------
Total correction                          0.06351499 Eh      39.86 kcal/mol

--------
ENTHALPY
--------

The enthalpy is H = U + kB*T
                kB is Boltzmann's constant
Total free energy                 ...   -748.23015315 Eh
Thermal Enthalpy correction       ...      0.00094421 Eh       0.59 kcal/mol
-----------------------------------------------------------------------
Total Enthalpy                    ...   -748.22920894 Eh

Note: Only C1 symmetry has been detected, increase convergence thresholds
      if your molecule has a higher symmetry. Symmetry factor of 1.0 is
      used for the rotational entropy correction.

Note: Rotational entropy computed according to Herzberg
Infrared and Raman Spectra, Chapter V,1, Van Nostrand Reinhold, 1945
Point Group:  C1, Symmetry Number:   1
Rotational constants in cm-1:     0.019435     0.019424     0.019422

Vibrational entropy computed according to the QRRHO of S. Grimme
Chem.Eur.J. 2012 18 9955

-------
ENTROPY
-------

The entropy contributions are T*S = T*(S(el)+S(vib)+S(rot)+S(trans))
     S(el)   - electronic entropy
     S(vib)  - vibrational entropy
     S(rot)  - rotational entropy
     S(trans)- translational entropy
The entropies will be listed as multiplied by the temperature to get
units of energy

Electronic entropy                ...      0.00000000 Eh      0.00 kcal/mol
Vibrational entropy               ...      0.02147279 Eh     13.47 kcal/mol
Rotational entropy                ...      0.01509246 Eh      9.47 kcal/mol
Translational entropy             ...      0.02024613 Eh     12.70 kcal/mol
-----------------------------------------------------------------------
Final entropy term                ...      0.05681138 Eh     35.65 kcal/mol

In case the symmetry of your molecule has not been determined correctly
or in case you have a reason to use a different symmetry number we print
out the resulting rotational entropy values for sn=1,12 :
 --------------------------------------------------------
|  sn= 1 | S(rot)=       0.01509246 Eh      9.47 kcal/mol|
|  sn= 2 | S(rot)=       0.01443801 Eh      9.06 kcal/mol|
|  sn= 3 | S(rot)=       0.01405517 Eh      8.82 kcal/mol|
|  sn= 4 | S(rot)=       0.01378355 Eh      8.65 kcal/mol|
|  sn= 5 | S(rot)=       0.01357286 Eh      8.52 kcal/mol|
|  sn= 6 | S(rot)=       0.01340072 Eh      8.41 kcal/mol|
|  sn= 7 | S(rot)=       0.01325517 Eh      8.32 kcal/mol|
|  sn= 8 | S(rot)=       0.01312909 Eh      8.24 kcal/mol|
|  sn= 9 | S(rot)=       0.01301788 Eh      8.17 kcal/mol|
|  sn=10 | S(rot)=       0.01291840 Eh      8.11 kcal/mol|
|  sn=11 | S(rot)=       0.01282841 Eh      8.05 kcal/mol|
|  sn=12 | S(rot)=       0.01274626 Eh      8.00 kcal/mol|
 --------------------------------------------------------

-------------------
GIBBS FREE ENERGY
-------------------

The Gibbs free energy is G = H - T*S

Total enthalpy                    ...   -748.22920894 Eh
Total entropy correction          ...     -0.05681138 Eh    -35.65 kcal/mol
-----------------------------------------------------------------------
Final Gibbs free energy         ...   -748.28602032 Eh

For completeness - the Gibbs free energy minus the electronic energy
G-E(el)                           ...      0.00764783 Eh      4.80 kcal/mol

                             ****ORCA TERMINATED NORMALLY****
TOTAL RUN TIME: 0 days 0 hours 34 minutes 59 seconds 279 msec
