                         Program Version 5.0.4 -  RELEASE  -
|  1> !B3LYP def2-TZVPD OPT FREQ TightSCF PAL8
|  2>
|  3> %scf
|  4>   MaxIter 300
|  5> end
|  6>
|  7> * xyz -1 1
|  8> Mo        -0.53152        1.02343        0.00977
|  9> C         -0.66263        3.16651       -0.06564
| 10> C         -2.66770        0.88609       -0.17337
| 11> C          1.60465        1.16087        0.19289
| 12> C         -0.40062       -1.11966        0.08512
| 13> O         -0.73146        4.29171       -0.10500
| 14> O          2.72626        1.23312        0.28838
| 15> O         -0.33201       -2.24488        0.12439
| 16> O         -3.78932        0.81394       -0.26890
| 17> C         -0.34118        0.95870       -2.12925
| 18> C         -0.72161        1.08806        2.14875
| 19> O         -0.82201        1.12219        3.27177
| 20> N         -0.23798        0.92361       -3.28106
| 21> **                         ****END OF INPUT****
 Total Charge           Charge          ....   -1
 Multiplicity           Mult            ....    1
 Number of Electrons    NEL             ....   98
FINAL SINGLE POINT ENERGY      -727.861763273617
FINAL SINGLE POINT ENERGY      -727.873447796479
FINAL SINGLE POINT ENERGY      -727.880102504959
FINAL SINGLE POINT ENERGY      -727.880676311459
FINAL SINGLE POINT ENERGY      -727.880893840744
FINAL SINGLE POINT ENERGY      -727.880933795905
FINAL SINGLE POINT ENERGY      -727.880955084088
FINAL SINGLE POINT ENERGY      -727.880956561478
                    ***********************HURRAY********************

CARTESIAN COORDINATES (ANGSTROEM)
---------------------------------
  Mo    -0.535818    1.025035    0.064630
  C     -0.659222    3.076511   -0.047318
  C     -2.578590    0.893584   -0.145733
  C      1.513132    1.155271    0.209781
  C     -0.404817   -1.029105    0.099415
  O     -0.728543    4.220963   -0.092732
  O      2.654224    1.227244    0.306764
  O     -0.334226   -2.173876    0.133303
  O     -3.719591    0.821918   -0.243970
  C     -0.340957    0.958093   -2.156646
  C     -0.714416    1.085247    2.065262
  O     -0.816715    1.119533    3.218819
  N     -0.241592    0.923272   -3.313725

 Multiplicity           Mult            ....    1
 Number of Electrons    NEL             ....   98
 Basis Dimension        Dim             ....  499

ORBITAL ENERGIES
----------------

  NO   OCC          E(Eh)            E(eV)
   0   2.0000     -19.082431      -519.2593
   1   2.0000     -19.082389      -519.2582
   2   2.0000     -19.082334      -519.2567
   3   2.0000     -19.082304      -519.2559
   4   2.0000     -19.058880      -518.6185
   5   2.0000     -14.121469      -384.2647
   6   2.0000     -10.161195      -276.5002
   7   2.0000     -10.161159      -276.4992
   8   2.0000     -10.161094      -276.4974
   9   2.0000     -10.161068      -276.4967
  10   2.0000     -10.144109      -276.0352
  11   2.0000     -10.007447      -272.3165
  12   2.0000      -2.420799       -65.8733
  13   2.0000      -1.425560       -38.7915
  14   2.0000      -1.425505       -38.7900
  15   2.0000      -1.418561       -38.6010
  16   2.0000      -1.014155       -27.5966
  17   2.0000      -1.013814       -27.5873
  18   2.0000      -1.013735       -27.5851
  19   2.0000      -1.013630       -27.5823
  20   2.0000      -0.988188       -26.8900
  21   2.0000      -0.710725       -19.3398
  22   2.0000      -0.461718       -12.5640
  23   2.0000      -0.445778       -12.1302
  24   2.0000      -0.441573       -12.0158
  25   2.0000      -0.441505       -12.0140
  26   2.0000      -0.429193       -11.6789
  27   2.0000      -0.358745        -9.7619
  28   2.0000      -0.348446        -9.4817
  29   2.0000      -0.340783        -9.2732
  30   2.0000      -0.340752        -9.2723
  31   2.0000      -0.339233        -9.2310
  32   2.0000      -0.338306        -9.2058
  33   2.0000      -0.338227        -9.2036
  34   2.0000      -0.335524        -9.1301
  35   2.0000      -0.332588        -9.0502
  36   2.0000      -0.329793        -8.9741
  37   2.0000      -0.316165        -8.6033
  38   2.0000      -0.316156        -8.6031
  39   2.0000      -0.311631        -8.4799
  40   2.0000      -0.275451        -7.4954
  41   2.0000      -0.275249        -7.4899
  42   2.0000      -0.251384        -6.8405
  43   2.0000      -0.165782        -4.5112
  44   2.0000      -0.165737        -4.5099
  45   2.0000      -0.165085        -4.4922
  46   2.0000      -0.107361        -2.9214
  47   2.0000      -0.088781        -2.4159
  48   2.0000      -0.088710        -2.4139
  49   0.0000       0.071605         1.9485
  50   0.0000       0.075732         2.0608
  51   0.0000       0.075900         2.0653
  52   0.0000       0.092299         2.5116
  53   0.0000       0.106687         2.9031

MULLIKEN ATOMIC CHARGES
-----------------------
   0 Mo:    0.179612
   1 C :    0.173359
   2 C :    0.173241
   3 C :    0.172776
   4 C :    0.172741
   5 O :   -0.288521
   6 O :   -0.288339
   7 O :   -0.288126
   8 O :   -0.288560
   9 C :    0.096233
  10 C :    0.120067
  11 O :   -0.356240
  12 N :   -0.578243
Sum of atomic charges:   -1.0000000

LOEWDIN ATOMIC CHARGES
----------------------
   0 Mo:    0.598320
   1 C :   -0.251832
   2 C :   -0.252230
   3 C :   -0.252033
   4 C :   -0.251590
   5 O :    0.061496
   6 O :    0.061297
   7 O :    0.061491
   8 O :    0.061421
   9 C :   -0.434267
  10 C :   -0.321510
  11 O :    0.016081
  12 N :   -0.096643

  Mayer bond orders larger than 0.100000
B(  0-Mo,  1-C ) :   0.8248 B(  0-Mo,  2-C ) :   0.8244 B(  0-Mo,  3-C ) :   0.8262
B(  0-Mo,  4-C ) :   0.8251 B(  0-Mo,  9-C ) :   0.9909 B(  0-Mo, 10-C ) :   1.1121
B(  0-Mo, 12-N ) :   0.3370 B(  1-C ,  5-O ) :   1.9654 B(  1-C ,  9-C ) :  -0.1132
B(  2-C ,  8-O ) :   1.9649 B(  2-C ,  9-C ) :  -0.1132 B(  3-C ,  6-O ) :   1.9651
B(  3-C ,  9-C ) :  -0.1126 B(  4-C ,  7-O ) :   1.9656 B(  4-C ,  9-C ) :  -0.1124
B(  9-C , 12-N ) :   1.7907 B( 10-C , 11-O ) :   1.8799

FINAL SINGLE POINT ENERGY      -727.880956652220

DIPOLE MOMENT
-------------
                                X             Y             Z
Electronic contribution:     -0.23260       0.08605       2.93086
Nuclear contribution   :      0.05391      -0.02444      -0.87831
                        -----------------------------------------
Total Dipole Moment    :     -0.17869       0.06161       2.05255
                        -----------------------------------------
Magnitude (a.u.)       :      2.06124
Magnitude (Debye)      :      5.23924

VIBRATIONAL FREQUENCIES
-----------------------

Scaling factor for frequencies =  1.000000000  (already applied!)

   0:         0.00 cm**-1
   1:         0.00 cm**-1
   2:         0.00 cm**-1
   3:         0.00 cm**-1
   4:         0.00 cm**-1
   5:         0.00 cm**-1
   6:        41.22 cm**-1
   7:        57.26 cm**-1
   8:        57.51 cm**-1
   9:        75.31 cm**-1
  10:        75.35 cm**-1
  11:        75.54 cm**-1
  12:        80.00 cm**-1
  13:        84.89 cm**-1
  14:        85.10 cm**-1
  15:       310.06 cm**-1
  16:       310.24 cm**-1
  17:       334.67 cm**-1
  18:       356.37 cm**-1
  19:       384.73 cm**-1
  20:       385.26 cm**-1
  21:       402.52 cm**-1
  22:       409.70 cm**-1
  23:       435.85 cm**-1
  24:       436.07 cm**-1
  25:       440.74 cm**-1
  26:       494.43 cm**-1
  27:       536.45 cm**-1
  28:       546.86 cm**-1
  29:       547.18 cm**-1
  30:       615.30 cm**-1
  31:       615.42 cm**-1
  32:       630.90 cm**-1
  33:      1943.43 cm**-1
  34:      1991.46 cm**-1
  35:      1991.55 cm**-1
  36:      2023.51 cm**-1
  37:      2110.52 cm**-1
  38:      2204.33 cm**-1

IR SPECTRUM
-----------

 Mode   freq       eps      Int      T**2         TX        TY        TZ
       cm**-1   L/(mol*cm) km/mol    a.u.
----------------------------------------------------------------------------
  6:     41.22   0.000000    0.00  0.000000  (-0.000132  0.000009  0.000144)
  7:     57.26   0.000110    0.56  0.000599  ( 0.008201  0.023069 -0.000018)
  8:     57.51   0.000115    0.58  0.000623  (-0.023507  0.008060 -0.002253)
  9:     75.31   0.000072    0.36  0.000296  ( 0.009480  0.014371  0.000205)
 10:     75.35   0.000072    0.37  0.000300  ( 0.014306 -0.009595  0.001776)
 11:     75.54   0.000017    0.09  0.000072  (-0.000944  0.000624  0.008409)
 12:     80.00   0.000000    0.00  0.000000  (-0.000172  0.000184 -0.000029)
 13:     84.89   0.000725    3.66  0.002666  (-0.015669 -0.049196  0.000090)
 14:     85.10   0.000720    3.64  0.002640  (-0.048742  0.015556 -0.004671)
 15:    310.06   0.000004    0.02  0.000004  (-0.000761 -0.001889 -0.000030)
 16:    310.24   0.000005    0.02  0.000005  ( 0.002025 -0.000605 -0.000254)
 17:    334.67   0.002551   12.89  0.002378  ( 0.004189 -0.001549 -0.048562)
 18:    356.37   0.000000    0.00  0.000000  ( 0.000030 -0.000018  0.000036)
 19:    384.73   0.012043   60.86  0.009768  (-0.003171  0.098731 -0.003213)
 20:    385.26   0.012016   60.72  0.009733  (-0.098231 -0.003173 -0.008571)
 21:    402.52   0.000001    0.01  0.000001  ( 0.000595  0.000621 -0.000374)
 22:    409.70   0.000381    1.92  0.000290  ( 0.001171 -0.000098 -0.016989)
 23:    435.85   0.001080    5.46  0.000773  (-0.027466 -0.003462 -0.002569)
 24:    436.07   0.001064    5.38  0.000762  ( 0.003387 -0.027357  0.001267)
 25:    440.74   0.000801    4.05  0.000567  ( 0.002491 -0.000853 -0.023673)
 26:    494.43   0.000000    0.00  0.000000  ( 0.000061 -0.000018  0.000011)
 27:    536.45   0.000000    0.00  0.000000  (-0.000276 -0.000208  0.000342)
 28:    546.86   0.000085    0.43  0.000048  ( 0.000022  0.006953 -0.000229)
 29:    547.18   0.000090    0.46  0.000051  (-0.007132 -0.000004 -0.000771)
 30:    615.30   0.016713   84.46  0.008477  ( 0.088824 -0.022637  0.008626)
 31:    615.42   0.016710   84.45  0.008473  ( 0.022792  0.089180 -0.000824)
 32:    630.90   0.014869   75.14  0.007355  ( 0.007465 -0.002633 -0.085394)
 33:   1943.43   0.271520  1372.15  0.043599  ( 0.018587 -0.006235 -0.207881)
 34:   1991.46   0.507657  2565.49  0.079550  ( 0.279106  0.032978  0.023715)
 35:   1991.55   0.507244  2563.40  0.079482  ( 0.032396 -0.279832  0.011252)
 36:   2023.51   0.000004    0.02  0.000001  ( 0.000386  0.000123 -0.000672)
 37:   2110.52   0.010731   54.23  0.001587  ( 0.003561 -0.001270 -0.039653)
 38:   2204.33   0.006983   35.29  0.000989  ( 0.002723 -0.000945 -0.031310)

--------------------------
THERMOCHEMISTRY AT 298.15K
--------------------------

Temperature         ... 298.15 K
Pressure            ... 1.00 atm
Total Mass          ... 262.01 AMU

Throughout the following assumptions are being made:
  (1) The electronic state is orbitally nondegenerate
  (2) There are no thermally accessible electronically excited states
  (3) Hindered rotations indicated by low frequency modes are not
      treated as such but are treated as vibrations and this may
      cause some error
  (4) All equations used are the standard statistical mechanics
      equations for an ideal gas
  (5) All vibrations are strictly harmonic

freq.      41.22  E(vib)   ...       0.54
freq.      57.26  E(vib)   ...       0.51
freq.      57.51  E(vib)   ...       0.51
freq.      75.31  E(vib)   ...       0.49
freq.      75.35  E(vib)   ...       0.49
freq.      75.54  E(vib)   ...       0.49
freq.      80.00  E(vib)   ...       0.49
freq.      84.89  E(vib)   ...       0.48
freq.      85.10  E(vib)   ...       0.48
freq.     310.06  E(vib)   ...       0.26
freq.     310.24  E(vib)   ...       0.26
freq.     334.67  E(vib)   ...       0.24
freq.     356.37  E(vib)   ...       0.22
freq.     384.73  E(vib)   ...       0.20
freq.     385.26  E(vib)   ...       0.20
freq.     402.52  E(vib)   ...       0.19
freq.     409.70  E(vib)   ...       0.19
freq.     435.85  E(vib)   ...       0.17
freq.     436.07  E(vib)   ...       0.17
freq.     440.74  E(vib)   ...       0.17
freq.     494.43  E(vib)   ...       0.14
freq.     536.45  E(vib)   ...       0.12
freq.     546.86  E(vib)   ...       0.12
freq.     547.18  E(vib)   ...       0.12
freq.     615.30  E(vib)   ...       0.10
freq.     615.42  E(vib)   ...       0.10
freq.     630.90  E(vib)   ...       0.09
freq.    1943.43  E(vib)   ...       0.00
freq.    1991.46  E(vib)   ...       0.00
freq.    1991.55  E(vib)   ...       0.00
freq.    2023.51  E(vib)   ...       0.00
freq.    2110.52  E(vib)   ...       0.00
freq.    2204.33  E(vib)   ...       0.00

------------
INNER ENERGY
------------

The inner energy is: U= E(el) + E(ZPE) + E(vib) + E(rot) + E(trans)
    E(el)   - is the total energy from the electronic structure calculation
              = E(kin-el) + E(nuc-el) + E(el-el) + E(nuc-nuc)
    E(ZPE)  - the the zero temperature vibrational energy from the frequency calculation
    E(vib)  - the the finite temperature correction to E(ZPE) due to population
              of excited vibrational states
    E(rot)  - is the rotational thermal energy
    E(trans)- is the translational thermal energy

Summary of contributions to the inner energy U:
Electronic energy                ...   -727.88095665 Eh
Zero point energy                ...      0.04804596 Eh      30.15 kcal/mol
Thermal vibrational correction   ...      0.01202985 Eh       7.55 kcal/mol
Thermal rotational correction    ...      0.00141627 Eh       0.89 kcal/mol
Thermal translational correction ...      0.00141627 Eh       0.89 kcal/mol
-----------------------------------------------------------------------
Total thermal energy                   -727.81804830 Eh

Summary of corrections to the electronic energy:
(perhaps to be used in another calculation)
Total thermal correction                  0.01486240 Eh       9.33 kcal/mol
Non-thermal (ZPE) correction              0.04804596 Eh      30.15 kcal/mol
-----------------------------------------------------------------------
Total correction                          0.06290836 Eh      39.48 kcal/mol

--------
ENTHALPY
--------

The enthalpy is H = U + kB*T
                kB is Boltzmann's constant
Total free energy                 ...   -727.81804830 Eh
Thermal Enthalpy correction       ...      0.00094421 Eh       0.59 kcal/mol
-----------------------------------------------------------------------
Total Enthalpy                    ...   -727.81710409 Eh

Note: Only C1 symmetry has been detected, increase convergence thresholds
      if your molecule has a higher symmetry. Symmetry factor of 1.0 is
      used for the rotational entropy correction.

Note: Rotational entropy computed according to Herzberg
Infrared and Raman Spectra, Chapter V,1, Van Nostrand Reinhold, 1945
Point Group:  C1, Symmetry Number:   1
Rotational constants in cm-1:     0.019598     0.019581     0.019575

Vibrational entropy computed according to the QRRHO of S. Grimme
Chem.Eur.J. 2012 18 9955

-------
ENTROPY
-------

The entropy contributions are T*S = T*(S(el)+S(vib)+S(rot)+S(trans))
     S(el)   - electronic entropy
     S(vib)  - vibrational entropy
     S(rot)  - rotational entropy
     S(trans)- translational entropy
The entropies will be listed as multiplied by the temperature to get
units of energy

Electronic entropy                ...      0.00000000 Eh      0.00 kcal/mol
Vibrational entropy               ...      0.02179820 Eh     13.68 kcal/mol
Rotational entropy                ...      0.01508104 Eh      9.46 kcal/mol
Translational entropy             ...      0.02023540 Eh     12.70 kcal/mol
-----------------------------------------------------------------------
Final entropy term                ...      0.05711463 Eh     35.84 kcal/mol

In case the symmetry of your molecule has not been determined correctly
or in case you have a reason to use a different symmetry number we print
out the resulting rotational entropy values for sn=1,12 :
 --------------------------------------------------------
|  sn= 1 | S(rot)=       0.01508104 Eh      9.46 kcal/mol|
|  sn= 2 | S(rot)=       0.01442658 Eh      9.05 kcal/mol|
|  sn= 3 | S(rot)=       0.01404375 Eh      8.81 kcal/mol|
|  sn= 4 | S(rot)=       0.01377213 Eh      8.64 kcal/mol|
|  sn= 5 | S(rot)=       0.01356144 Eh      8.51 kcal/mol|
|  sn= 6 | S(rot)=       0.01338929 Eh      8.40 kcal/mol|
|  sn= 7 | S(rot)=       0.01324375 Eh      8.31 kcal/mol|
|  sn= 8 | S(rot)=       0.01311767 Eh      8.23 kcal/mol|
|  sn= 9 | S(rot)=       0.01300646 Eh      8.16 kcal/mol|
|  sn=10 | S(rot)=       0.01290698 Eh      8.10 kcal/mol|
|  sn=11 | S(rot)=       0.01281699 Eh      8.04 kcal/mol|
|  sn=12 | S(rot)=       0.01273484 Eh      7.99 kcal/mol|
 --------------------------------------------------------

-------------------
GIBBS FREE ENERGY
-------------------

The Gibbs free energy is G = H - T*S

Total enthalpy                    ...   -727.81710409 Eh
Total entropy correction          ...     -0.05711463 Eh    -35.84 kcal/mol
-----------------------------------------------------------------------
Final Gibbs free energy         ...   -727.87421872 Eh

For completeness - the Gibbs free energy minus the electronic energy
G-E(el)                           ...      0.00673793 Eh      4.23 kcal/mol

                             ****ORCA TERMINATED NORMALLY****
TOTAL RUN TIME: 0 days 0 hours 39 minutes 42 seconds 130 msec
