                         Program Version 5.0.4 -  RELEASE  -
|  1> !B3LYP def2-TZVPD OPT FREQ TightSCF PAL8
|  2>
|  3> %scf
|  4>   MaxIter 300
|  5> end
|  6>
|  7> * xyz -1 1
|  8> Mo        -1.31350        0.80310       -0.04608
|  9> C         -1.29468        2.94876        0.06394
| 10> C         -3.46135        0.82385       -0.09599
| 11> C          0.83438        0.78176        0.00232
| 12> C         -1.33254       -1.34242       -0.15758
| 13> O         -1.28475        4.07521        0.12132
| 14> O          1.96204        0.77050        0.02744
| 15> O         -1.34270       -2.46890       -0.21615
| 16> O         -4.58900        0.83447       -0.12234
| 17> C         -1.26289        0.91449       -2.19106
| 18> O         -1.23618        0.97331       -3.31720
| 19> F         -1.35967        0.70159        1.92187
| 20> **                         ****END OF INPUT****
 Total Charge           Charge          ....   -1
 Multiplicity           Mult            ....    1
 Number of Electrons    NEL             ....   94
FINAL SINGLE POINT ENERGY      -734.879015031149
FINAL SINGLE POINT ENERGY      -734.894435477763
FINAL SINGLE POINT ENERGY      -734.903833259799
FINAL SINGLE POINT ENERGY      -734.905064757688
FINAL SINGLE POINT ENERGY      -734.905562565777
FINAL SINGLE POINT ENERGY      -734.905759187770
FINAL SINGLE POINT ENERGY      -734.905857203355
FINAL SINGLE POINT ENERGY      -734.905906547831
FINAL SINGLE POINT ENERGY      -734.905927733013
FINAL SINGLE POINT ENERGY      -734.905964549808
FINAL SINGLE POINT ENERGY      -734.906014364935
FINAL SINGLE POINT ENERGY      -734.906057482072
FINAL SINGLE POINT ENERGY      -734.906073828312
FINAL SINGLE POINT ENERGY      -734.906078005812
FINAL SINGLE POINT ENERGY      -734.906080630931
FINAL SINGLE POINT ENERGY      -734.906085256975
FINAL SINGLE POINT ENERGY      -734.906090545731
                    ***********************HURRAY********************

CARTESIAN COORDINATES (ANGSTROEM)
---------------------------------
  Mo    -1.312438    0.806053   -0.011850
  C     -1.299104    2.867883    0.047953
  C     -3.370511    0.816096   -0.117162
  C      0.748796    0.773996   -0.018946
  C     -1.334964   -1.248203   -0.172179
  O     -1.295859    4.016229    0.009458
  O      1.894900    0.750547   -0.101817
  O     -1.348508   -2.384600   -0.347730
  O     -4.511479    0.816123   -0.259119
  C     -1.268395    0.902368   -1.985496
  O     -1.240913    0.960635   -3.150176
  F     -1.342367    0.738593    2.097555

 Multiplicity           Mult            ....    1
 Number of Electrons    NEL             ....   94
 Basis Dimension        Dim             ....  465

ORBITAL ENERGIES
----------------

  NO   OCC          E(Eh)            E(eV)
   0   2.0000     -24.398164      -663.9078
   1   2.0000     -19.072450      -518.9877
   2   2.0000     -19.071720      -518.9679
   3   2.0000     -19.070916      -518.9460
   4   2.0000     -19.070601      -518.9374
   5   2.0000     -19.029711      -517.8248
   6   2.0000     -10.148682      -276.1597
   7   2.0000     -10.148173      -276.1458
   8   2.0000     -10.147662      -276.1319
   9   2.0000     -10.147485      -276.1271
  10   2.0000     -10.117711      -275.3169
  11   2.0000      -2.411564       -65.6220
  12   2.0000      -1.415607       -38.5206
  13   2.0000      -1.415596       -38.5203
  14   2.0000      -1.409680       -38.3593
  15   2.0000      -1.003095       -27.2956
  16   2.0000      -1.002264       -27.2730
  17   2.0000      -1.001388       -27.2491
  18   2.0000      -1.000939       -27.2369
  19   2.0000      -0.957156       -26.0455
  20   2.0000      -0.875929       -23.8352
  21   2.0000      -0.449812       -12.2400
  22   2.0000      -0.435284       -11.8447
  23   2.0000      -0.431318       -11.7367
  24   2.0000      -0.431211       -11.7339
  25   2.0000      -0.405777       -11.0418
  26   2.0000      -0.343806        -9.3554
  27   2.0000      -0.337023        -9.1709
  28   2.0000      -0.329869        -8.9762
  29   2.0000      -0.329755        -8.9731
  30   2.0000      -0.326726        -8.8907
  31   2.0000      -0.326519        -8.8850
  32   2.0000      -0.326248        -8.8777
  33   2.0000      -0.323841        -8.8122
  34   2.0000      -0.320044        -8.7088
  35   2.0000      -0.318584        -8.6691
  36   2.0000      -0.291355        -7.9282
  37   2.0000      -0.291337        -7.9277
  38   2.0000      -0.283921        -7.7259
  39   2.0000      -0.260965        -7.1012
  40   2.0000      -0.260790        -7.0965
  41   2.0000      -0.176796        -4.8109
  42   2.0000      -0.164876        -4.4865
  43   2.0000      -0.164819        -4.4849
  44   2.0000      -0.095539        -2.5997
  45   2.0000      -0.062974        -1.7136
  46   2.0000      -0.062933        -1.7125
  47   0.0000       0.069555         1.8927
  48   0.0000       0.088134         2.3982
  49   0.0000       0.088269         2.4019
  50   0.0000       0.103607         2.8193
  51   0.0000       0.113369         3.0849

MULLIKEN ATOMIC CHARGES
-----------------------
   0 Mo:    0.614207
   1 C :    0.196972
   2 C :    0.179917
   3 C :    0.189940
   4 C :    0.175271
   5 O :   -0.296469
   6 O :   -0.297841
   7 O :   -0.299961
   8 O :   -0.299329
   9 C :    0.044734
  10 O :   -0.378820
  11 F :   -0.828620
Sum of atomic charges:   -1.0000000

LOEWDIN ATOMIC CHARGES
----------------------
   0 Mo:    0.796552
   1 C :   -0.234593
   2 C :   -0.239262
   3 C :   -0.236931
   4 C :   -0.239971
   5 O :    0.053927
   6 O :    0.052609
   7 O :    0.050357
   8 O :    0.050971
   9 C :   -0.381300
  10 O :   -0.009758
  11 F :   -0.662601

  Mayer bond orders larger than 0.100000
B(  0-Mo,  1-C ) :   0.8927 B(  0-Mo,  2-C ) :   0.9048 B(  0-Mo,  3-C ) :   0.8970
B(  0-Mo,  4-C ) :   0.9089 B(  0-Mo,  9-C ) :   1.0648 B(  0-Mo, 10-O ) :   0.1272
B(  0-Mo, 11-F ) :   0.4966 B(  1-C ,  5-O ) :   1.9540 B(  2-C ,  8-O ) :   1.9483
B(  3-C ,  6-O ) :   1.9514 B(  4-C ,  7-O ) :   1.9468 B(  9-C , 10-O ) :   1.7861

FINAL SINGLE POINT ENERGY      -734.906094100798

DIPOLE MOMENT
-------------
                                X             Y             Z
Electronic contribution:     -0.22735      -0.47055      13.30218
Nuclear contribution   :      0.24598       0.51290     -13.94062
                        -----------------------------------------
Total Dipole Moment    :      0.01864       0.04234      -0.63843
                        -----------------------------------------
Magnitude (a.u.)       :      0.64011
Magnitude (Debye)      :      1.62703

VIBRATIONAL FREQUENCIES
-----------------------

Scaling factor for frequencies =  1.000000000  (already applied!)

   0:         0.00 cm**-1
   1:         0.00 cm**-1
   2:         0.00 cm**-1
   3:         0.00 cm**-1
   4:         0.00 cm**-1
   5:         0.00 cm**-1
   6:        32.70 cm**-1
   7:        60.75 cm**-1
   8:        60.93 cm**-1
   9:        67.78 cm**-1
  10:        78.45 cm**-1
  11:        78.79 cm**-1
  12:        78.90 cm**-1
  13:       121.71 cm**-1
  14:       122.85 cm**-1
  15:       349.98 cm**-1
  16:       351.50 cm**-1
  17:       352.13 cm**-1
  18:       396.98 cm**-1
  19:       403.90 cm**-1
  20:       406.47 cm**-1
  21:       406.85 cm**-1
  22:       417.00 cm**-1
  23:       471.19 cm**-1
  24:       487.50 cm**-1
  25:       537.78 cm**-1
  26:       562.21 cm**-1
  27:       562.48 cm**-1
  28:       620.08 cm**-1
  29:       620.21 cm**-1
  30:       632.90 cm**-1
  31:      1898.14 cm**-1
  32:      1971.48 cm**-1
  33:      1971.82 cm**-1
  34:      2007.52 cm**-1
  35:      2102.96 cm**-1

IR SPECTRUM
-----------

 Mode   freq       eps      Int      T**2         TX        TY        TZ
       cm**-1   L/(mol*cm) km/mol    a.u.
----------------------------------------------------------------------------
  6:     32.70   0.000000    0.00  0.000001  ( 0.000411 -0.000847 -0.000237)
  7:     60.75   0.000049    0.25  0.000254  (-0.012842 -0.009413 -0.000086)
  8:     60.93   0.000049    0.25  0.000249  ( 0.009180 -0.012845 -0.000104)
  9:     67.78   0.000032    0.16  0.000147  ( 0.001395  0.003014 -0.011657)
 10:     78.45   0.000182    0.92  0.000725  ( 0.025597  0.008195  0.001760)
 11:     78.79   0.000236    1.19  0.000936  (-0.013789  0.027246  0.001891)
 12:     78.90   0.000079    0.40  0.000314  ( 0.011709  0.013202  0.001630)
 13:    121.71   0.000051    0.26  0.000131  (-0.010496 -0.004546 -0.000706)
 14:    122.85   0.000048    0.24  0.000122  (-0.004376  0.010127  0.000474)
 15:    349.98   0.000297    1.50  0.000264  ( 0.013746 -0.008684 -0.000124)
 16:    351.50   0.013809   69.78  0.012260  (-0.008674 -0.110118 -0.007650)
 17:    352.13   0.013564   68.55  0.012020  ( 0.109312 -0.007982  0.002750)
 18:    396.98   0.000016    0.08  0.000013  (-0.000940  0.002979 -0.001681)
 19:    403.90   0.005666   28.63  0.004377  (-0.000035  0.001274 -0.066150)
 20:    406.47   0.000912    4.61  0.000700  ( 0.016023  0.016889  0.012574)
 21:    406.85   0.000768    3.88  0.000589  (-0.017893  0.015561  0.005181)
 22:    417.00   0.018399   92.98  0.013769  ( 0.003239  0.006965 -0.117089)
 23:    471.19   0.000092    0.47  0.000061  ( 0.000026  0.000238 -0.007805)
 24:    487.50   0.000009    0.05  0.000006  ( 0.002240  0.000928  0.000130)
 25:    537.78   0.000000    0.00  0.000000  ( 0.000074  0.000281 -0.000294)
 26:    562.21   0.001736    8.77  0.000963  ( 0.005188  0.030449  0.003062)
 27:    562.48   0.001744    8.81  0.000968  (-0.030676  0.005110 -0.000777)
 28:    620.08   0.009805   49.55  0.004935  ( 0.063733  0.029543 -0.000315)
 29:    620.21   0.009777   49.41  0.004919  (-0.029302  0.063722 -0.000502)
 30:    632.90   0.006296   31.82  0.003104  ( 0.000162  0.000378  0.055716)
 31:   1898.14   0.248189  1254.25  0.040803  (-0.006958 -0.015218  0.201304)
 32:   1971.48   0.550709  2783.06  0.087171  ( 0.291791 -0.044702  0.005546)
 33:   1971.82   0.548577  2772.28  0.086819  ( 0.044786  0.290562  0.019660)
 34:   2007.52   0.003276   16.55  0.000509  ( 0.009031 -0.020603 -0.001776)
 35:   2102.96   0.002367   11.96  0.000351  ( 0.001784  0.003825 -0.018261)

--------------------------
THERMOCHEMISTRY AT 298.15K
--------------------------

Temperature         ... 298.15 K
Pressure            ... 1.00 atm
Total Mass          ... 254.99 AMU

Throughout the following assumptions are being made:
  (1) The electronic state is orbitally nondegenerate
  (2) There are no thermally accessible electronically excited states
  (3) Hindered rotations indicated by low frequency modes are not
      treated as such but are treated as vibrations and this may
      cause some error
  (4) All equations used are the standard statistical mechanics
      equations for an ideal gas
  (5) All vibrations are strictly harmonic

freq.      32.70  E(vib)   ...       0.55
freq.      60.75  E(vib)   ...       0.51
freq.      60.93  E(vib)   ...       0.51
freq.      67.78  E(vib)   ...       0.50
freq.      78.45  E(vib)   ...       0.49
freq.      78.79  E(vib)   ...       0.49
freq.      78.90  E(vib)   ...       0.49
freq.     121.71  E(vib)   ...       0.44
freq.     122.85  E(vib)   ...       0.43
freq.     349.98  E(vib)   ...       0.23
freq.     351.50  E(vib)   ...       0.23
freq.     352.13  E(vib)   ...       0.23
freq.     396.98  E(vib)   ...       0.20
freq.     403.90  E(vib)   ...       0.19
freq.     406.47  E(vib)   ...       0.19
freq.     406.85  E(vib)   ...       0.19
freq.     417.00  E(vib)   ...       0.18
freq.     471.19  E(vib)   ...       0.15
freq.     487.50  E(vib)   ...       0.15
freq.     537.78  E(vib)   ...       0.12
freq.     562.21  E(vib)   ...       0.11
freq.     562.48  E(vib)   ...       0.11
freq.     620.08  E(vib)   ...       0.09
freq.     620.21  E(vib)   ...       0.09
freq.     632.90  E(vib)   ...       0.09
freq.    1898.14  E(vib)   ...       0.00
freq.    1971.48  E(vib)   ...       0.00
freq.    1971.82  E(vib)   ...       0.00
freq.    2007.52  E(vib)   ...       0.00
freq.    2102.96  E(vib)   ...       0.00

------------
INNER ENERGY
------------

The inner energy is: U= E(el) + E(ZPE) + E(vib) + E(rot) + E(trans)
    E(el)   - is the total energy from the electronic structure calculation
              = E(kin-el) + E(nuc-el) + E(el-el) + E(nuc-nuc)
    E(ZPE)  - the the zero temperature vibrational energy from the frequency calculation
    E(vib)  - the the finite temperature correction to E(ZPE) due to population
              of excited vibrational states
    E(rot)  - is the rotational thermal energy
    E(trans)- is the translational thermal energy

Summary of contributions to the inner energy U:
Electronic energy                ...   -734.90609410 Eh
Zero point energy                ...      0.04153995 Eh      26.07 kcal/mol
Thermal vibrational correction   ...      0.01109169 Eh       6.96 kcal/mol
Thermal rotational correction    ...      0.00141627 Eh       0.89 kcal/mol
Thermal translational correction ...      0.00141627 Eh       0.89 kcal/mol
-----------------------------------------------------------------------
Total thermal energy                   -734.85062991 Eh

Summary of corrections to the electronic energy:
(perhaps to be used in another calculation)
Total thermal correction                  0.01392424 Eh       8.74 kcal/mol
Non-thermal (ZPE) correction              0.04153995 Eh      26.07 kcal/mol
-----------------------------------------------------------------------
Total correction                          0.05546419 Eh      34.80 kcal/mol

--------
ENTHALPY
--------

The enthalpy is H = U + kB*T
                kB is Boltzmann's constant
Total free energy                 ...   -734.85062991 Eh
Thermal Enthalpy correction       ...      0.00094421 Eh       0.59 kcal/mol
-----------------------------------------------------------------------
Total Enthalpy                    ...   -734.84968570 Eh

Note: Only C1 symmetry has been detected, increase convergence thresholds
      if your molecule has a higher symmetry. Symmetry factor of 1.0 is
      used for the rotational entropy correction.

Note: Rotational entropy computed according to Herzberg
Infrared and Raman Spectra, Chapter V,1, Van Nostrand Reinhold, 1945
Point Group:  C1, Symmetry Number:   1
Rotational constants in cm-1:     0.023638     0.023620     0.019567

Vibrational entropy computed according to the QRRHO of S. Grimme
Chem.Eur.J. 2012 18 9955

-------
ENTROPY
-------

The entropy contributions are T*S = T*(S(el)+S(vib)+S(rot)+S(trans))
     S(el)   - electronic entropy
     S(vib)  - vibrational entropy
     S(rot)  - rotational entropy
     S(trans)- translational entropy
The entropies will be listed as multiplied by the temperature to get
units of energy

Electronic entropy                ...      0.00000000 Eh      0.00 kcal/mol
Vibrational entropy               ...      0.02027735 Eh     12.72 kcal/mol
Rotational entropy                ...      0.01490420 Eh      9.35 kcal/mol
Translational entropy             ...      0.02019694 Eh     12.67 kcal/mol
-----------------------------------------------------------------------
Final entropy term                ...      0.05537849 Eh     34.75 kcal/mol

In case the symmetry of your molecule has not been determined correctly
or in case you have a reason to use a different symmetry number we print
out the resulting rotational entropy values for sn=1,12 :
 --------------------------------------------------------
|  sn= 1 | S(rot)=       0.01490420 Eh      9.35 kcal/mol|
|  sn= 2 | S(rot)=       0.01424974 Eh      8.94 kcal/mol|
|  sn= 3 | S(rot)=       0.01386691 Eh      8.70 kcal/mol|
|  sn= 4 | S(rot)=       0.01359528 Eh      8.53 kcal/mol|
|  sn= 5 | S(rot)=       0.01338460 Eh      8.40 kcal/mol|
|  sn= 6 | S(rot)=       0.01321245 Eh      8.29 kcal/mol|
|  sn= 7 | S(rot)=       0.01306691 Eh      8.20 kcal/mol|
|  sn= 8 | S(rot)=       0.01294083 Eh      8.12 kcal/mol|
|  sn= 9 | S(rot)=       0.01282962 Eh      8.05 kcal/mol|
|  sn=10 | S(rot)=       0.01273014 Eh      7.99 kcal/mol|
|  sn=11 | S(rot)=       0.01264015 Eh      7.93 kcal/mol|
|  sn=12 | S(rot)=       0.01255800 Eh      7.88 kcal/mol|
 --------------------------------------------------------

-------------------
GIBBS FREE ENERGY
-------------------

The Gibbs free energy is G = H - T*S

Total enthalpy                    ...   -734.84968570 Eh
Total entropy correction          ...     -0.05537849 Eh    -34.75 kcal/mol
-----------------------------------------------------------------------
Final Gibbs free energy         ...   -734.90506419 Eh

For completeness - the Gibbs free energy minus the electronic energy
G-E(el)                           ...      0.00102991 Eh      0.65 kcal/mol

                             ****ORCA TERMINATED NORMALLY****
TOTAL RUN TIME: 0 days 0 hours 46 minutes 38 seconds 940 msec
