                         Program Version 5.0.4 -  RELEASE  -
|  1> !B3LYP def2-TZVPD OPT FREQ TightSCF PAL8
|  2>
|  3> %scf
|  4>   MaxIter 300
|  5> end
|  6>
|  7> * xyz +1 1
|  8> Mo        -1.33573        0.20929       -0.06216
|  9> C         -1.21402        2.33063        0.25555
| 10> C          0.79337        0.04970        0.17719
| 11> C         -1.45863       -1.91195       -0.37975
| 12> C         -3.46489        0.36735       -0.30155
| 13> O         -1.15044        3.44445        0.42211
| 14> O          1.91121       -0.03448        0.30262
| 15> O         -1.52342       -3.02570       -0.54626
| 16> O         -4.58283        0.44999       -0.42708
| 17> C         -1.59591       -0.09228        2.04901
| 18> N         -1.08526        0.49958       -2.09005
| 19> O         -1.73252       -0.25061        3.15745
| 20> O         -0.95128        0.65483       -3.17173
| 21> **                         ****END OF INPUT****
 Total Charge           Charge          ....    1
 Multiplicity           Mult            ....    1
 Number of Electrons    NEL             ....   98
FINAL SINGLE POINT ENERGY      -764.603189463106
FINAL SINGLE POINT ENERGY      -764.611799618218
FINAL SINGLE POINT ENERGY      -764.618913198125
FINAL SINGLE POINT ENERGY      -764.619420542008
FINAL SINGLE POINT ENERGY      -764.619740676023
FINAL SINGLE POINT ENERGY      -764.619919549387
FINAL SINGLE POINT ENERGY      -764.619942465592
FINAL SINGLE POINT ENERGY      -764.619949317450
                    ***********************HURRAY********************

CARTESIAN COORDINATES (ANGSTROEM)
---------------------------------
  Mo    -1.328066    0.221245   -0.136218
  C     -1.212106    2.307916    0.225388
  C      0.764660    0.057471    0.150227
  C     -1.453283   -1.878570   -0.398024
  C     -3.434204    0.371341   -0.322447
  O     -1.147620    3.417454    0.408797
  O      1.878620   -0.028964    0.293832
  O     -1.516996   -2.993517   -0.545636
  O     -4.552618    0.451749   -0.429790
  C     -1.594511   -0.094602    2.037153
  N     -1.102271    0.479559   -1.958709
  O     -1.729256   -0.257351    3.137730
  O     -0.962698    0.637070   -3.076953

 Multiplicity           Mult            ....    1
 Number of Electrons    NEL             ....   98
 Basis Dimension        Dim             ....  502

ORBITAL ENERGIES
----------------

  NO   OCC          E(Eh)            E(eV)
   0   2.0000     -19.437567      -528.9231
   1   2.0000     -19.423184      -528.5317
   2   2.0000     -19.398440      -527.8584
   3   2.0000     -19.398378      -527.8567
   4   2.0000     -19.398345      -527.8558
   5   2.0000     -19.398268      -527.8537
   6   2.0000     -14.677842      -399.4044
   7   2.0000     -10.493276      -285.5366
   8   2.0000     -10.474680      -285.0305
   9   2.0000     -10.474656      -285.0299
  10   2.0000     -10.474564      -285.0274
  11   2.0000     -10.474536      -285.0266
  12   2.0000      -2.773484       -75.4703
  13   2.0000      -1.786880       -48.6235
  14   2.0000      -1.770743       -48.1844
  15   2.0000      -1.770714       -48.1836
  16   2.0000      -1.437761       -39.1235
  17   2.0000      -1.357431       -36.9376
  18   2.0000      -1.332937       -36.2711
  19   2.0000      -1.332683       -36.2641
  20   2.0000      -1.332609       -36.2621
  21   2.0000      -1.332504       -36.2593
  22   2.0000      -0.891284       -24.2531
  23   2.0000      -0.771051       -20.9814
  24   2.0000      -0.756921       -20.5969
  25   2.0000      -0.746308       -20.3081
  26   2.0000      -0.741484       -20.1768
  27   2.0000      -0.741410       -20.1748
  28   2.0000      -0.728140       -19.8137
  29   2.0000      -0.710211       -19.3258
  30   2.0000      -0.710208       -19.3257
  31   2.0000      -0.670063       -18.2333
  32   2.0000      -0.670047       -18.2329
  33   2.0000      -0.669624       -18.2214
  34   2.0000      -0.656865       -17.8742
  35   2.0000      -0.653538       -17.7837
  36   2.0000      -0.648869       -17.6566
  37   2.0000      -0.647395       -17.6165
  38   2.0000      -0.647342       -17.6151
  39   2.0000      -0.646252       -17.5854
  40   2.0000      -0.646200       -17.5840
  41   2.0000      -0.644634       -17.5414
  42   2.0000      -0.639809       -17.4101
  43   2.0000      -0.624827       -17.0024
  44   2.0000      -0.597806       -16.2671
  45   2.0000      -0.597725       -16.2649
  46   2.0000      -0.448091       -12.1932
  47   2.0000      -0.448058       -12.1923
  48   2.0000      -0.428334       -11.6556
  49   0.0000      -0.283459        -7.7133
  50   0.0000      -0.283452        -7.7131
  51   0.0000      -0.242262        -6.5923
  52   0.0000      -0.223069        -6.0700
  53   0.0000      -0.222993        -6.0679

MULLIKEN ATOMIC CHARGES
-----------------------
   0 Mo:    0.539043
   1 C :    0.229196
   2 C :    0.229314
   3 C :    0.227504
   4 C :    0.229571
   5 O :   -0.085610
   6 O :   -0.085983
   7 O :   -0.085750
   8 O :   -0.085805
   9 C :    0.183858
  10 N :   -0.009047
  11 O :   -0.016219
  12 O :   -0.270072
Sum of atomic charges:    1.0000000

LOEWDIN ATOMIC CHARGES
----------------------
   0 Mo:    0.745619
   1 C :   -0.145425
   2 C :   -0.147074
   3 C :   -0.146337
   4 C :   -0.146376
   5 O :    0.188755
   6 O :    0.188837
   7 O :    0.188885
   8 O :    0.188738
   9 C :   -0.083163
  10 N :   -0.210563
  11 O :    0.212968
  12 O :    0.165135

  Mayer bond orders larger than 0.100000
B(  0-Mo,  1-C ) :   0.7831 B(  0-Mo,  2-C ) :   0.7823 B(  0-Mo,  3-C ) :   0.7807
B(  0-Mo,  4-C ) :   0.7825 B(  0-Mo,  9-C ) :   0.6203 B(  0-Mo, 10-N ) :   0.9189
B(  0-Mo, 12-O ) :   0.3722 B(  1-C ,  5-O ) :   2.2320 B(  2-C ,  6-O ) :   2.2314
B(  3-C ,  7-O ) :   2.2318 B(  4-C ,  8-O ) :   2.2326 B(  9-C , 11-O ) :   2.3029
B( 10-N , 12-O ) :   1.3487

FINAL SINGLE POINT ENERGY      -764.619951675708

DIPOLE MOMENT
-------------
                                X             Y             Z
Electronic contribution:      0.28022       0.47524      -2.79491
Nuclear contribution   :     -0.31364      -0.50882       3.04652
                        -----------------------------------------
Total Dipole Moment    :     -0.03342      -0.03357       0.25160
                        -----------------------------------------
Magnitude (a.u.)       :      0.25602
Magnitude (Debye)      :      0.65076

VIBRATIONAL FREQUENCIES
-----------------------

Scaling factor for frequencies =  1.000000000  (already applied!)

   0:         0.00 cm**-1
   1:         0.00 cm**-1
   2:         0.00 cm**-1
   3:         0.00 cm**-1
   4:         0.00 cm**-1
   5:         0.00 cm**-1
   6:        55.31 cm**-1
   7:        56.45 cm**-1
   8:        65.52 cm**-1
   9:        80.26 cm**-1
  10:        81.08 cm**-1
  11:        81.32 cm**-1
  12:        88.81 cm**-1
  13:        90.60 cm**-1
  14:        91.14 cm**-1
  15:       292.02 cm**-1
  16:       315.56 cm**-1
  17:       316.02 cm**-1
  18:       331.67 cm**-1
  19:       334.64 cm**-1
  20:       335.58 cm**-1
  21:       347.43 cm**-1
  22:       362.96 cm**-1
  23:       421.60 cm**-1
  24:       421.89 cm**-1
  25:       459.43 cm**-1
  26:       466.58 cm**-1
  27:       494.16 cm**-1
  28:       528.11 cm**-1
  29:       528.49 cm**-1
  30:       586.49 cm**-1
  31:       645.89 cm**-1
  32:       646.41 cm**-1
  33:      1921.68 cm**-1
  34:      2165.21 cm**-1
  35:      2165.22 cm**-1
  36:      2179.95 cm**-1
  37:      2218.79 cm**-1
  38:      2252.31 cm**-1

IR SPECTRUM
-----------

 Mode   freq       eps      Int      T**2         TX        TY        TZ
       cm**-1   L/(mol*cm) km/mol    a.u.
----------------------------------------------------------------------------
  6:     55.31   0.000004    0.02  0.000024  (-0.003855 -0.002957 -0.000804)
  7:     56.45   0.000003    0.02  0.000018  (-0.002613  0.003269  0.000196)
  8:     65.52   0.000000    0.00  0.000000  ( 0.000206 -0.000101  0.000061)
  9:     80.26   0.000000    0.00  0.000001  ( 0.000215 -0.000825 -0.000278)
 10:     81.08   0.000036    0.18  0.000138  (-0.008333 -0.008174 -0.001490)
 11:     81.32   0.000041    0.21  0.000157  ( 0.008679 -0.008984 -0.000935)
 12:     88.81   0.000343    1.73  0.001206  ( 0.006774  0.005719 -0.033571)
 13:     90.60   0.000218    1.10  0.000752  (-0.019895 -0.016936 -0.008310)
 14:     91.14   0.000214    1.08  0.000734  ( 0.017447 -0.020711  0.000784)
 15:    292.02   0.004087   20.65  0.004368  (-0.008000 -0.009106  0.064968)
 16:    315.56   0.000991    5.01  0.000980  ( 0.016787  0.025908  0.005204)
 17:    316.02   0.000984    4.97  0.000971  ( 0.024451 -0.019321  0.000344)
 18:    331.67   0.000001    0.01  0.000001  (-0.000901  0.000726 -0.000051)
 19:    334.64   0.008265   41.77  0.007707  ( 0.014210  0.085507  0.013917)
 20:    335.58   0.008415   42.53  0.007825  ( 0.086718 -0.015291  0.008441)
 21:    347.43   0.000006    0.03  0.000006  (-0.001473 -0.001842  0.000155)
 22:    362.96   0.000325    1.64  0.000280  ( 0.000926  0.003295 -0.016365)
 23:    421.60   0.000381    1.93  0.000282  ( 0.011234  0.012025  0.003382)
 24:    421.89   0.000384    1.94  0.000284  (-0.012302  0.011505  0.000459)
 25:    459.43   0.000000    0.00  0.000000  ( 0.000232 -0.000429 -0.000026)
 26:    466.58   0.000000    0.00  0.000000  ( 0.000188  0.000055 -0.000225)
 27:    494.16   0.001452    7.34  0.000917  (-0.003766 -0.004142  0.029757)
 28:    528.11   0.006591   33.31  0.003895  ( 0.061681  0.004639  0.008274)
 29:    528.49   0.006569   33.20  0.003879  (-0.005811  0.061513  0.007828)
 30:    586.49   0.017806   89.98  0.009474  ( 0.011747  0.013592 -0.095662)
 31:    645.89   0.006081   30.73  0.002938  (-0.040271 -0.034864 -0.010047)
 32:    646.41   0.006053   30.59  0.002922  (-0.035597  0.040653  0.001528)
 33:   1921.68   0.276864  1399.16  0.044960  (-0.025699 -0.029618  0.208381)
 34:   2165.21   0.248849  1257.58  0.035866  (-0.022908 -0.185709 -0.029208)
 35:   2165.22   0.249314  1259.93  0.035933  (-0.186768  0.026120 -0.019180)
 36:   2179.95   0.000060    0.30  0.000009  (-0.002658 -0.001175 -0.000417)
 37:   2218.79   0.030176  152.50  0.004244  ( 0.007569  0.009538 -0.063999)
 38:   2252.31   0.036732  185.63  0.005089  ( 0.008692  0.010152 -0.070077)

--------------------------
THERMOCHEMISTRY AT 298.15K
--------------------------

Temperature         ... 298.15 K
Pressure            ... 1.00 atm
Total Mass          ... 266.00 AMU

Throughout the following assumptions are being made:
  (1) The electronic state is orbitally nondegenerate
  (2) There are no thermally accessible electronically excited states
  (3) Hindered rotations indicated by low frequency modes are not
      treated as such but are treated as vibrations and this may
      cause some error
  (4) All equations used are the standard statistical mechanics
      equations for an ideal gas
  (5) All vibrations are strictly harmonic

freq.      55.31  E(vib)   ...       0.52
freq.      56.45  E(vib)   ...       0.52
freq.      65.52  E(vib)   ...       0.50
freq.      80.26  E(vib)   ...       0.49
freq.      81.08  E(vib)   ...       0.48
freq.      81.32  E(vib)   ...       0.48
freq.      88.81  E(vib)   ...       0.47
freq.      90.60  E(vib)   ...       0.47
freq.      91.14  E(vib)   ...       0.47
freq.     292.02  E(vib)   ...       0.27
freq.     315.56  E(vib)   ...       0.25
freq.     316.02  E(vib)   ...       0.25
freq.     331.67  E(vib)   ...       0.24
freq.     334.64  E(vib)   ...       0.24
freq.     335.58  E(vib)   ...       0.24
freq.     347.43  E(vib)   ...       0.23
freq.     362.96  E(vib)   ...       0.22
freq.     421.60  E(vib)   ...       0.18
freq.     421.89  E(vib)   ...       0.18
freq.     459.43  E(vib)   ...       0.16
freq.     466.58  E(vib)   ...       0.16
freq.     494.16  E(vib)   ...       0.14
freq.     528.11  E(vib)   ...       0.13
freq.     528.49  E(vib)   ...       0.13
freq.     586.49  E(vib)   ...       0.11
freq.     645.89  E(vib)   ...       0.09
freq.     646.41  E(vib)   ...       0.09
freq.    1921.68  E(vib)   ...       0.00
freq.    2165.21  E(vib)   ...       0.00
freq.    2165.22  E(vib)   ...       0.00
freq.    2179.95  E(vib)   ...       0.00
freq.    2218.79  E(vib)   ...       0.00
freq.    2252.31  E(vib)   ...       0.00

------------
INNER ENERGY
------------

The inner energy is: U= E(el) + E(ZPE) + E(vib) + E(rot) + E(trans)
    E(el)   - is the total energy from the electronic structure calculation
              = E(kin-el) + E(nuc-el) + E(el-el) + E(nuc-nuc)
    E(ZPE)  - the the zero temperature vibrational energy from the frequency calculation
    E(vib)  - the the finite temperature correction to E(ZPE) due to population
              of excited vibrational states
    E(rot)  - is the rotational thermal energy
    E(trans)- is the translational thermal energy

Summary of contributions to the inner energy U:
Electronic energy                ...   -764.61995168 Eh
Zero point energy                ...      0.04881789 Eh      30.63 kcal/mol
Thermal vibrational correction   ...      0.01226831 Eh       7.70 kcal/mol
Thermal rotational correction    ...      0.00141627 Eh       0.89 kcal/mol
Thermal translational correction ...      0.00141627 Eh       0.89 kcal/mol
-----------------------------------------------------------------------
Total thermal energy                   -764.55603293 Eh

Summary of corrections to the electronic energy:
(perhaps to be used in another calculation)
Total thermal correction                  0.01510085 Eh       9.48 kcal/mol
Non-thermal (ZPE) correction              0.04881789 Eh      30.63 kcal/mol
-----------------------------------------------------------------------
Total correction                          0.06391875 Eh      40.11 kcal/mol

--------
ENTHALPY
--------

The enthalpy is H = U + kB*T
                kB is Boltzmann's constant
Total free energy                 ...   -764.55603293 Eh
Thermal Enthalpy correction       ...      0.00094421 Eh       0.59 kcal/mol
-----------------------------------------------------------------------
Total Enthalpy                    ...   -764.55508872 Eh

Note: Only C1 symmetry has been detected, increase convergence thresholds
      if your molecule has a higher symmetry. Symmetry factor of 1.0 is
      used for the rotational entropy correction.

Note: Rotational entropy computed according to Herzberg
Infrared and Raman Spectra, Chapter V,1, Van Nostrand Reinhold, 1945
Point Group:  C1, Symmetry Number:   1
Rotational constants in cm-1:     0.019324     0.019312     0.018944

Vibrational entropy computed according to the QRRHO of S. Grimme
Chem.Eur.J. 2012 18 9955

-------
ENTROPY
-------

The entropy contributions are T*S = T*(S(el)+S(vib)+S(rot)+S(trans))
     S(el)   - electronic entropy
     S(vib)  - vibrational entropy
     S(rot)  - rotational entropy
     S(trans)- translational entropy
The entropies will be listed as multiplied by the temperature to get
units of energy

Electronic entropy                ...      0.00000000 Eh      0.00 kcal/mol
Vibrational entropy               ...      0.02217974 Eh     13.92 kcal/mol
Rotational entropy                ...      0.01510966 Eh      9.48 kcal/mol
Translational entropy             ...      0.02025680 Eh     12.71 kcal/mol
-----------------------------------------------------------------------
Final entropy term                ...      0.05754619 Eh     36.11 kcal/mol

In case the symmetry of your molecule has not been determined correctly
or in case you have a reason to use a different symmetry number we print
out the resulting rotational entropy values for sn=1,12 :
 --------------------------------------------------------
|  sn= 1 | S(rot)=       0.01510966 Eh      9.48 kcal/mol|
|  sn= 2 | S(rot)=       0.01445520 Eh      9.07 kcal/mol|
|  sn= 3 | S(rot)=       0.01407237 Eh      8.83 kcal/mol|
|  sn= 4 | S(rot)=       0.01380075 Eh      8.66 kcal/mol|
|  sn= 5 | S(rot)=       0.01359006 Eh      8.53 kcal/mol|
|  sn= 6 | S(rot)=       0.01341791 Eh      8.42 kcal/mol|
|  sn= 7 | S(rot)=       0.01327237 Eh      8.33 kcal/mol|
|  sn= 8 | S(rot)=       0.01314629 Eh      8.25 kcal/mol|
|  sn= 9 | S(rot)=       0.01303508 Eh      8.18 kcal/mol|
|  sn=10 | S(rot)=       0.01293560 Eh      8.12 kcal/mol|
|  sn=11 | S(rot)=       0.01284561 Eh      8.06 kcal/mol|
|  sn=12 | S(rot)=       0.01276346 Eh      8.01 kcal/mol|
 --------------------------------------------------------

-------------------
GIBBS FREE ENERGY
-------------------

The Gibbs free energy is G = H - T*S

Total enthalpy                    ...   -764.55508872 Eh
Total entropy correction          ...     -0.05754619 Eh    -36.11 kcal/mol
-----------------------------------------------------------------------
Final Gibbs free energy         ...   -764.61263491 Eh

For completeness - the Gibbs free energy minus the electronic energy
G-E(el)                           ...      0.00731676 Eh      4.59 kcal/mol

                             ****ORCA TERMINATED NORMALLY****
TOTAL RUN TIME: 0 days 0 hours 40 minutes 48 seconds 652 msec
