                         Program Version 5.0.4 -  RELEASE  -
|  1> !B3LYP def2-TZVPD OPT FREQ TightSCF PAL8
|  2>
|  3> %scf
|  4>   MaxIter 300
|  5> end
|  6>
|  7> * xyz 0 1
|  8> O         -1.16324        3.48652        0.32805
|  9> O         -4.60072        0.47494       -0.44112
| 10> C         -1.22481        2.37302        0.15918
| 11> C         -3.47954        0.39807       -0.34548
| 12> Mo        -1.34203        0.25106       -0.16349
| 13> C         -1.55752       -0.05102        1.95254
| 14> O         -1.67065       -0.20959        3.06359
| 15> N         -1.12201        0.54907       -2.24326
| 16> C          0.79225        0.10018        0.03566
| 17> C         -1.46501       -1.87307       -0.46973
| 18> O          1.91269        0.02077        0.13993
| 19> O         -1.52953       -2.98771       -0.63055
| 20> H         -2.05490        0.70931       -2.68408
| 21> H         -0.51366        1.38043       -2.41513
| 22> H         -0.67734       -0.29196       -2.67408
| 23> **                         ****END OF INPUT****
 Total Charge           Charge          ....    0
 Multiplicity           Mult            ....    1
 Number of Electrons    NEL             ....   94
FINAL SINGLE POINT ENERGY      -691.486618346113
FINAL SINGLE POINT ENERGY      -691.504581834464
FINAL SINGLE POINT ENERGY      -691.515415519479
FINAL SINGLE POINT ENERGY      -691.517248569197
FINAL SINGLE POINT ENERGY      -691.517653583474
FINAL SINGLE POINT ENERGY      -691.517900824712
FINAL SINGLE POINT ENERGY      -691.517975540184
FINAL SINGLE POINT ENERGY      -691.518002422340
FINAL SINGLE POINT ENERGY      -691.518007423175
FINAL SINGLE POINT ENERGY      -691.518008684259
FINAL SINGLE POINT ENERGY      -691.518007901789
                    ***********************HURRAY********************

CARTESIAN COORDINATES (ANGSTROEM)
---------------------------------
  O     -1.188658    3.394094    0.472623
  O     -4.544657    0.449131   -0.281122
  C     -1.243355    2.275242    0.240722
  C     -3.403355    0.380620   -0.243612
  Mo    -1.351180    0.243342   -0.099070
  C     -1.543287   -0.039534    1.857596
  O     -1.651597   -0.205501    2.990065
  N     -1.097672    0.580138   -2.453320
  C      0.692727    0.090112    0.124064
  C     -1.474100   -1.797940   -0.359571
  O      1.820121   -0.003064    0.294148
  O     -1.546960   -2.935260   -0.459036
  H     -1.987577    0.727483   -2.917653
  H     -0.519009    1.389022   -2.654355
  H     -0.657461   -0.217864   -2.899447

 Multiplicity           Mult            ....    1
 Number of Electrons    NEL             ....   94
 Basis Dimension        Dim             ....  489

ORBITAL ENERGIES
----------------

  NO   OCC          E(Eh)            E(eV)
   0   2.0000     -19.206050      -522.6232
   1   2.0000     -19.206018      -522.6223
   2   2.0000     -19.205796      -522.6163
   3   2.0000     -19.205747      -522.6149
   4   2.0000     -19.177073      -521.8347
   5   2.0000     -14.380188      -391.3048
   6   2.0000     -10.283696      -279.8336
   7   2.0000     -10.283611      -279.8313
   8   2.0000     -10.283515      -279.8287
   9   2.0000     -10.283511      -279.8286
  10   2.0000     -10.264306      -279.3060
  11   2.0000      -2.549546       -69.3767
  12   2.0000      -1.553688       -42.2780
  13   2.0000      -1.553639       -42.2767
  14   2.0000      -1.550104       -42.1805
  15   2.0000      -1.138242       -30.9731
  16   2.0000      -1.137894       -30.9637
  17   2.0000      -1.137793       -30.9609
  18   2.0000      -1.137618       -30.9562
  19   2.0000      -1.109437       -30.1893
  20   2.0000      -0.933525       -25.4025
  21   2.0000      -0.583675       -15.8826
  22   2.0000      -0.566424       -15.4132
  23   2.0000      -0.561995       -15.2927
  24   2.0000      -0.561943       -15.2913
  25   2.0000      -0.544175       -14.8078
  26   2.0000      -0.541203       -14.7269
  27   2.0000      -0.541017       -14.7218
  28   2.0000      -0.481456       -13.1011
  29   2.0000      -0.471244       -12.8232
  30   2.0000      -0.464326       -12.6350
  31   2.0000      -0.464294       -12.6341
  32   2.0000      -0.463083       -12.6011
  33   2.0000      -0.460551       -12.5322
  34   2.0000      -0.460494       -12.5307
  35   2.0000      -0.459975       -12.5166
  36   2.0000      -0.457201       -12.4411
  37   2.0000      -0.451998       -12.2995
  38   2.0000      -0.435436       -11.8488
  39   2.0000      -0.435424       -11.8485
  40   2.0000      -0.432096       -11.7579
  41   2.0000      -0.399248       -10.8641
  42   2.0000      -0.399118       -10.8606
  43   2.0000      -0.374445       -10.1892
  44   2.0000      -0.233714        -6.3597
  45   2.0000      -0.221169        -6.0183
  46   2.0000      -0.221089        -6.0161
  47   0.0000      -0.079568        -2.1652
  48   0.0000      -0.046755        -1.2723
  49   0.0000      -0.046592        -1.2678
  50   0.0000      -0.034548        -0.9401
  51   0.0000      -0.023230        -0.6321

MULLIKEN ATOMIC CHARGES
-----------------------
   0 O :   -0.240880
   1 O :   -0.242255
   2 C :    0.157087
   3 C :    0.147821
   4 Mo:    0.375334
   5 C :    0.117319
   6 O :   -0.267406
   7 N :   -0.616510
   8 C :    0.171613
   9 C :    0.153187
  10 O :   -0.241223
  11 O :   -0.241386
  12 H :    0.220158
  13 H :    0.255821
  14 H :    0.251318
Sum of atomic charges:   -0.0000000

LOEWDIN ATOMIC CHARGES
----------------------
   0 O :    0.087826
   1 O :    0.088032
   2 C :   -0.238127
   3 C :   -0.239915
   4 Mo:    0.672176
   5 C :   -0.310292
   6 O :    0.076604
   7 N :   -0.000393
   8 C :   -0.238151
   9 C :   -0.239403
  10 O :    0.087771
  11 O :    0.088037
  12 H :    0.055158
  13 H :    0.055326
  14 H :    0.055351

  Mayer bond orders larger than 0.100000
B(  0-O ,  2-C ) :   2.0202 B(  1-O ,  3-C ) :   2.0105 B(  2-C ,  4-Mo) :   0.8592
B(  3-C ,  4-Mo) :   0.8816 B(  4-Mo,  5-C ) :   0.9409 B(  4-Mo,  7-N ) :   0.5730
B(  4-Mo,  8-C ) :   0.8782 B(  4-Mo,  9-C ) :   0.8589 B(  5-C ,  6-O ) :   1.9658
B(  7-N ,  8-C ) :  -0.1066 B(  7-N , 12-H ) :   1.0130 B(  7-N , 13-H ) :   0.9868
B(  7-N , 14-H ) :   0.9900 B(  8-C , 10-O ) :   2.0285 B(  9-C , 11-O ) :   2.0172

FINAL SINGLE POINT ENERGY      -691.518006159974

DIPOLE MOMENT
-------------
                                X             Y             Z
Electronic contribution:      0.35430       0.73238      -4.55982
Nuclear contribution   :     -0.09690      -0.38114       2.13768
                        -----------------------------------------
Total Dipole Moment    :      0.25740       0.35124      -2.42214
                        -----------------------------------------
Magnitude (a.u.)       :      2.46097
Magnitude (Debye)      :      6.25529

VIBRATIONAL FREQUENCIES
-----------------------

Scaling factor for frequencies =  1.000000000  (already applied!)

   0:         0.00 cm**-1
   1:         0.00 cm**-1
   2:         0.00 cm**-1
   3:         0.00 cm**-1
   4:         0.00 cm**-1
   5:         0.00 cm**-1
   6:        23.87 cm**-1
   7:        48.17 cm**-1
   8:        63.61 cm**-1
   9:        64.36 cm**-1
  10:        78.82 cm**-1
  11:        80.01 cm**-1
  12:        85.60 cm**-1
  13:        85.96 cm**-1
  14:       119.48 cm**-1
  15:       120.46 cm**-1
  16:       314.20 cm**-1
  17:       350.27 cm**-1
  18:       373.47 cm**-1
  19:       373.99 cm**-1
  20:       388.78 cm**-1
  21:       388.96 cm**-1
  22:       397.09 cm**-1
  23:       404.15 cm**-1
  24:       455.54 cm**-1
  25:       490.59 cm**-1
  26:       538.83 cm**-1
  27:       541.75 cm**-1
  28:       541.80 cm**-1
  29:       568.11 cm**-1
  30:       568.19 cm**-1
  31:       622.02 cm**-1
  32:       622.05 cm**-1
  33:       634.40 cm**-1
  34:      1217.82 cm**-1
  35:      1667.00 cm**-1
  36:      1668.57 cm**-1
  37:      2004.89 cm**-1
  38:      2017.70 cm**-1
  39:      2017.79 cm**-1
  40:      2049.35 cm**-1
  41:      2138.66 cm**-1
  42:      3466.32 cm**-1
  43:      3562.84 cm**-1
  44:      3564.77 cm**-1

IR SPECTRUM
-----------

 Mode   freq       eps      Int      T**2         TX        TY        TZ
       cm**-1   L/(mol*cm) km/mol    a.u.
----------------------------------------------------------------------------
  6:     23.87   0.000060    0.30  0.000782  (-0.001775  0.027658  0.003691)
  7:     48.17   0.000000    0.00  0.000001  (-0.000790  0.000182 -0.000006)
  8:     63.61   0.000318    1.61  0.001560  ( 0.039164  0.002980  0.004178)
  9:     64.36   0.000273    1.38  0.001323  (-0.003704  0.035875  0.004704)
 10:     78.82   0.000358    1.81  0.001415  (-0.004356 -0.004804  0.037060)
 11:     80.01   0.000001    0.00  0.000002  ( 0.000101  0.000303 -0.001415)
 12:     85.60   0.000449    2.27  0.001638  ( 0.039006  0.009248  0.005563)
 13:     85.96   0.000434    2.20  0.001577  (-0.009749  0.038291  0.003959)
 14:    119.48   0.000701    3.54  0.001831  (-0.042573  0.001209 -0.004087)
 15:    120.46   0.000698    3.53  0.001807  ( 0.000608  0.042067  0.006119)
 16:    314.20   0.000216    1.09  0.000215  ( 0.001917  0.001969 -0.014397)
 17:    350.27   0.000000    0.00  0.000000  ( 0.000075 -0.000281 -0.000043)
 18:    373.47   0.013723   69.35  0.011467  ( 0.015964  0.104641  0.016186)
 19:    373.99   0.013687   69.17  0.011420  (-0.105036  0.017702 -0.008629)
 20:    388.78   0.000498    2.52  0.000400  ( 0.013965  0.014079  0.002617)
 21:    388.96   0.000495    2.50  0.000397  (-0.014757  0.013360  0.001094)
 22:    397.09   0.000005    0.02  0.000004  (-0.000961 -0.001357 -0.000967)
 23:    404.15   0.000520    2.63  0.000402  (-0.001839 -0.001111  0.019927)
 24:    455.54   0.000536    2.71  0.000367  ( 0.001494  0.003275 -0.018815)
 25:    490.59   0.000000    0.00  0.000000  ( 0.000458 -0.000183 -0.000004)
 26:    538.83   0.000003    0.01  0.000002  ( 0.001216 -0.000199  0.000340)
 27:    541.75   0.000007    0.04  0.000004  (-0.001618 -0.001272  0.000234)
 28:    541.80   0.000006    0.03  0.000004  ( 0.001500 -0.001121 -0.000240)
 29:    568.11   0.003690   18.65  0.002027  ( 0.016066 -0.041863 -0.004026)
 30:    568.19   0.003728   18.84  0.002047  ( 0.042044  0.015216  0.006935)
 31:    622.02   0.009957   50.32  0.004995  (-0.052893 -0.044977 -0.013219)
 32:    622.05   0.009942   50.25  0.004988  ( 0.045957 -0.053577 -0.002314)
 33:    634.40   0.010050   50.79  0.004943  (-0.009199 -0.010101  0.068969)
 34:   1217.82   0.026681  134.84  0.006837  ( 0.008699  0.011604 -0.081404)
 35:   1667.00   0.005083   25.69  0.000951  ( 0.002132  0.030423  0.004622)
 36:   1668.57   0.004901   24.77  0.000917  ( 0.030031 -0.002499  0.002921)
 37:   2004.89   0.195110  986.00  0.030369  ( 0.017172  0.023529 -0.171815)
 38:   2017.70   0.471620  2383.37  0.072942  ( 0.044420  0.263228  0.040988)
 39:   2017.79   0.471923  2384.91  0.072986  (-0.265072  0.048116 -0.020187)
 40:   2049.35   0.000031    0.16  0.000005  (-0.001943  0.000969  0.000087)
 41:   2138.66   0.009753   49.29  0.001423  (-0.003544 -0.005573  0.037141)
 42:   3466.32   0.000871    4.40  0.000078  (-0.001083 -0.001221  0.008706)
 43:   3562.84   0.005669   28.65  0.000497  ( 0.001899  0.021931  0.003459)
 44:   3564.77   0.005737   28.99  0.000502  (-0.022163  0.002316 -0.002378)

--------------------------
THERMOCHEMISTRY AT 298.15K
--------------------------

Temperature         ... 298.15 K
Pressure            ... 1.00 atm
Total Mass          ... 253.02 AMU

Throughout the following assumptions are being made:
  (1) The electronic state is orbitally nondegenerate
  (2) There are no thermally accessible electronically excited states
  (3) Hindered rotations indicated by low frequency modes are not
      treated as such but are treated as vibrations and this may
      cause some error
  (4) All equations used are the standard statistical mechanics
      equations for an ideal gas
  (5) All vibrations are strictly harmonic

freq.      23.87  E(vib)   ...       0.56
freq.      48.17  E(vib)   ...       0.53
freq.      63.61  E(vib)   ...       0.51
freq.      64.36  E(vib)   ...       0.51
freq.      78.82  E(vib)   ...       0.49
freq.      80.01  E(vib)   ...       0.49
freq.      85.60  E(vib)   ...       0.48
freq.      85.96  E(vib)   ...       0.48
freq.     119.48  E(vib)   ...       0.44
freq.     120.46  E(vib)   ...       0.44
freq.     314.20  E(vib)   ...       0.25
freq.     350.27  E(vib)   ...       0.23
freq.     373.47  E(vib)   ...       0.21
freq.     373.99  E(vib)   ...       0.21
freq.     388.78  E(vib)   ...       0.20
freq.     388.96  E(vib)   ...       0.20
freq.     397.09  E(vib)   ...       0.20
freq.     404.15  E(vib)   ...       0.19
freq.     455.54  E(vib)   ...       0.16
freq.     490.59  E(vib)   ...       0.15
freq.     538.83  E(vib)   ...       0.12
freq.     541.75  E(vib)   ...       0.12
freq.     541.80  E(vib)   ...       0.12
freq.     568.11  E(vib)   ...       0.11
freq.     568.19  E(vib)   ...       0.11
freq.     622.02  E(vib)   ...       0.09
freq.     622.05  E(vib)   ...       0.09
freq.     634.40  E(vib)   ...       0.09
freq.    1217.82  E(vib)   ...       0.01
freq.    1667.00  E(vib)   ...       0.00
freq.    1668.57  E(vib)   ...       0.00
freq.    2004.89  E(vib)   ...       0.00
freq.    2017.70  E(vib)   ...       0.00
freq.    2017.79  E(vib)   ...       0.00
freq.    2049.35  E(vib)   ...       0.00
freq.    2138.66  E(vib)   ...       0.00
freq.    3466.32  E(vib)   ...       0.00
freq.    3562.84  E(vib)   ...       0.00
freq.    3564.77  E(vib)   ...       0.00

------------
INNER ENERGY
------------

The inner energy is: U= E(el) + E(ZPE) + E(vib) + E(rot) + E(trans)
    E(el)   - is the total energy from the electronic structure calculation
              = E(kin-el) + E(nuc-el) + E(el-el) + E(nuc-nuc)
    E(ZPE)  - the the zero temperature vibrational energy from the frequency calculation
    E(vib)  - the the finite temperature correction to E(ZPE) due to population
              of excited vibrational states
    E(rot)  - is the rotational thermal energy
    E(trans)- is the translational thermal energy

Summary of contributions to the inner energy U:
Electronic energy                ...   -691.51800616 Eh
Zero point energy                ...      0.07909848 Eh      49.63 kcal/mol
Thermal vibrational correction   ...      0.01239892 Eh       7.78 kcal/mol
Thermal rotational correction    ...      0.00141627 Eh       0.89 kcal/mol
Thermal translational correction ...      0.00141627 Eh       0.89 kcal/mol
-----------------------------------------------------------------------
Total thermal energy                   -691.42367622 Eh

Summary of corrections to the electronic energy:
(perhaps to be used in another calculation)
Total thermal correction                  0.01523146 Eh       9.56 kcal/mol
Non-thermal (ZPE) correction              0.07909848 Eh      49.63 kcal/mol
-----------------------------------------------------------------------
Total correction                          0.09432994 Eh      59.19 kcal/mol

--------
ENTHALPY
--------

The enthalpy is H = U + kB*T
                kB is Boltzmann's constant
Total free energy                 ...   -691.42367622 Eh
Thermal Enthalpy correction       ...      0.00094421 Eh       0.59 kcal/mol
-----------------------------------------------------------------------
Total Enthalpy                    ...   -691.42273202 Eh

Note: Only C1 symmetry has been detected, increase convergence thresholds
      if your molecule has a higher symmetry. Symmetry factor of 1.0 is
      used for the rotational entropy correction.

Note: Rotational entropy computed according to Herzberg
Infrared and Raman Spectra, Chapter V,1, Van Nostrand Reinhold, 1945
Point Group:  C1, Symmetry Number:   1
Rotational constants in cm-1:     0.022981     0.022951     0.019518

Vibrational entropy computed according to the QRRHO of S. Grimme
Chem.Eur.J. 2012 18 9955

-------
ENTROPY
-------

The entropy contributions are T*S = T*(S(el)+S(vib)+S(rot)+S(trans))
     S(el)   - electronic entropy
     S(vib)  - vibrational entropy
     S(rot)  - rotational entropy
     S(trans)- translational entropy
The entropies will be listed as multiplied by the temperature to get
units of energy

Electronic entropy                ...      0.00000000 Eh      0.00 kcal/mol
Vibrational entropy               ...      0.02278803 Eh     14.30 kcal/mol
Rotational entropy                ...      0.01493225 Eh      9.37 kcal/mol
Translational entropy             ...      0.02018597 Eh     12.67 kcal/mol
-----------------------------------------------------------------------
Final entropy term                ...      0.05790625 Eh     36.34 kcal/mol

In case the symmetry of your molecule has not been determined correctly
or in case you have a reason to use a different symmetry number we print
out the resulting rotational entropy values for sn=1,12 :
 --------------------------------------------------------
|  sn= 1 | S(rot)=       0.01493225 Eh      9.37 kcal/mol|
|  sn= 2 | S(rot)=       0.01427779 Eh      8.96 kcal/mol|
|  sn= 3 | S(rot)=       0.01389496 Eh      8.72 kcal/mol|
|  sn= 4 | S(rot)=       0.01362334 Eh      8.55 kcal/mol|
|  sn= 5 | S(rot)=       0.01341265 Eh      8.42 kcal/mol|
|  sn= 6 | S(rot)=       0.01324050 Eh      8.31 kcal/mol|
|  sn= 7 | S(rot)=       0.01309496 Eh      8.22 kcal/mol|
|  sn= 8 | S(rot)=       0.01296888 Eh      8.14 kcal/mol|
|  sn= 9 | S(rot)=       0.01285767 Eh      8.07 kcal/mol|
|  sn=10 | S(rot)=       0.01275819 Eh      8.01 kcal/mol|
|  sn=11 | S(rot)=       0.01266820 Eh      7.95 kcal/mol|
|  sn=12 | S(rot)=       0.01258605 Eh      7.90 kcal/mol|
 --------------------------------------------------------

-------------------
GIBBS FREE ENERGY
-------------------

The Gibbs free energy is G = H - T*S

Total enthalpy                    ...   -691.42273202 Eh
Total entropy correction          ...     -0.05790625 Eh    -36.34 kcal/mol
-----------------------------------------------------------------------

                             ****ORCA TERMINATED NORMALLY****
TOTAL RUN TIME: 0 days 0 hours 44 minutes 52 seconds 407 msec
