                         Program Version 5.0.4 -  RELEASE  -
|  1> !B3LYP def2-TZVPD OPT FREQ TightSCF PAL8
|  2>
|  3> %scf
|  4>   MaxIter 300
|  5> end
|  6>
|  7> * xyz -1 1
|  8> O         -1.11634        3.48152        0.48558
|  9> O         -4.51866        0.52355       -0.57545
| 10> C         -1.17349        2.37455        0.27643
| 11> C         -3.40501        0.43512       -0.41945
| 12> Mo        -1.28303        0.26611       -0.12169
| 13> C         -1.61319       -0.11095        1.96743
| 14> O         -1.78639       -0.30902        3.06430
| 15> N         -0.95501        0.64028       -2.15648
| 16> C          0.83693        0.09688        0.18256
| 17> C         -1.39357       -1.84568       -0.50896
| 18> O          1.95003        0.00770        0.34200
| 19> O         -1.45208       -2.95363       -0.71232
| 20> O         -1.54099        0.01667       -2.98763
| 21> **                         ****END OF INPUT****
 Total Charge           Charge          ....   -1
 Multiplicity           Mult            ....    1
 Number of Electrons    NEL             ....  100
FINAL SINGLE POINT ENERGY      -764.886932146534
FINAL SINGLE POINT ENERGY      -764.899748467607
FINAL SINGLE POINT ENERGY      -764.906342535449
FINAL SINGLE POINT ENERGY      -764.908237587015
FINAL SINGLE POINT ENERGY      -764.909633458999
FINAL SINGLE POINT ENERGY      -764.910579798989
FINAL SINGLE POINT ENERGY      -764.911070861727
FINAL SINGLE POINT ENERGY      -764.911274648517
FINAL SINGLE POINT ENERGY      -764.911336877387
FINAL SINGLE POINT ENERGY      -764.911364671268
FINAL SINGLE POINT ENERGY      -764.911405271840
FINAL SINGLE POINT ENERGY      -764.911415820152
FINAL SINGLE POINT ENERGY      -764.911429299899
FINAL SINGLE POINT ENERGY      -764.911443264289
FINAL SINGLE POINT ENERGY      -764.911452029072
FINAL SINGLE POINT ENERGY      -764.911459209115
FINAL SINGLE POINT ENERGY      -764.911465534410
FINAL SINGLE POINT ENERGY      -764.911470695919
FINAL SINGLE POINT ENERGY      -764.911472800930
                    ***********************HURRAY********************

CARTESIAN COORDINATES (ANGSTROEM)
---------------------------------
  O     -1.171067    3.396849    0.656764
  O     -4.466705    0.542253   -0.661280
  C     -1.227956    2.279040    0.388967
  C     -3.347338    0.438914   -0.407542
  Mo    -1.342385    0.261160   -0.006539
  C     -1.583941   -0.085951    1.951370
  O     -1.728980   -0.315480    3.078921
  N     -1.066020    0.747024   -2.235651
  C      0.704946    0.106818    0.038469
  C     -1.465191   -1.754181   -0.379540
  O      1.853891    0.017976    0.036345
  O     -1.541171   -2.887806   -0.553528
  O     -1.068884   -0.123517   -3.070437

 Multiplicity           Mult            ....    1
 Number of Electrons    NEL             ....  100
 Basis Dimension        Dim             ....  502

ORBITAL ENERGIES
----------------

  NO   OCC          E(Eh)            E(eV)
   0   2.0000     -19.070376      -518.9313
   1   2.0000     -19.069988      -518.9208
   2   2.0000     -19.067158      -518.8437
   3   2.0000     -19.067086      -518.8418
   4   2.0000     -19.047360      -518.3050
   5   2.0000     -19.024773      -517.6904
   6   2.0000     -14.242494      -387.5580
   7   2.0000     -10.148394      -276.1518
   8   2.0000     -10.147391      -276.1246
   9   2.0000     -10.145996      -276.0866
  10   2.0000     -10.145933      -276.0849
  11   2.0000     -10.133464      -275.7456
  12   2.0000      -2.407950       -65.5236
  13   2.0000      -1.413262       -38.4568
  14   2.0000      -1.413000       -38.4497
  15   2.0000      -1.405320       -38.2407
  16   2.0000      -1.001040       -27.2397
  17   2.0000      -1.000070       -27.2133
  18   2.0000      -0.996814       -27.1247
  19   2.0000      -0.996670       -27.1208
  20   2.0000      -0.981747       -26.7147
  21   2.0000      -0.976115       -26.5614
  22   2.0000      -0.486727       -13.2445
  23   2.0000      -0.448167       -12.1952
  24   2.0000      -0.433453       -11.7948
  25   2.0000      -0.430385       -11.7114
  26   2.0000      -0.428306       -11.6548
  27   2.0000      -0.417715       -11.3666
  28   2.0000      -0.345697        -9.4069
  29   2.0000      -0.335069        -9.1177
  30   2.0000      -0.329087        -8.9549
  31   2.0000      -0.326924        -8.8960
  32   2.0000      -0.326566        -8.8863
  33   2.0000      -0.326035        -8.8719
  34   2.0000      -0.323822        -8.8116
  35   2.0000      -0.322046        -8.7633
  36   2.0000      -0.319163        -8.6849
  37   2.0000      -0.315947        -8.5974
  38   2.0000      -0.306670        -8.3449
  39   2.0000      -0.304404        -8.2833
  40   2.0000      -0.304093        -8.2748
  41   2.0000      -0.285902        -7.7798
  42   2.0000      -0.278538        -7.5794
  43   2.0000      -0.271989        -7.4012
  44   2.0000      -0.257795        -7.0150
  45   2.0000      -0.257057        -6.9949
  46   2.0000      -0.096022        -2.6129
  47   2.0000      -0.083080        -2.2607
  48   2.0000      -0.079620        -2.1666
  49   2.0000      -0.012509        -0.3404
  50   0.0000       0.072600         1.9755
  51   0.0000       0.073378         1.9967
  52   0.0000       0.087517         2.3815
  53   0.0000       0.090776         2.4701
  54   0.0000       0.103625         2.8198

MULLIKEN ATOMIC CHARGES
-----------------------
   0 O :   -0.318477
   1 O :   -0.316572
   2 C :    0.215507
   3 C :    0.172196
   4 Mo:    0.116206
   5 C :    0.120043
   6 O :   -0.322329
   7 N :   -0.018182
   8 C :    0.170500
   9 C :    0.189407
  10 O :   -0.316529
  11 O :   -0.287912
  12 O :   -0.403857
Sum of atomic charges:   -1.0000000

LOEWDIN ATOMIC CHARGES
----------------------
   0 O :    0.042873
   1 O :    0.037935
   2 C :   -0.267823
   3 C :   -0.273001
   4 Mo:    0.655033
   5 C :   -0.330537
   6 O :    0.008577
   7 N :   -0.204567
   8 C :   -0.272315
   9 C :   -0.262477
  10 O :    0.037224
  11 O :    0.053536
  12 O :   -0.224458

  Mayer bond orders larger than 0.100000
B(  0-O ,  2-C ) :   1.9077 B(  1-O ,  3-C ) :   1.9241 B(  2-C ,  4-Mo) :   0.8457
B(  2-C ,  7-N ) :  -0.1349 B(  3-C ,  4-Mo) :   0.8746 B(  4-Mo,  5-C ) :   1.1285
B(  4-Mo,  7-N ) :   0.9627 B(  4-Mo,  8-C ) :   0.8786 B(  4-Mo,  9-C ) :   0.9080
B(  4-Mo, 12-O ) :   0.2287 B(  5-C ,  6-O ) :   1.8328 B(  7-N , 12-O ) :   1.4340
B(  8-C , 10-O ) :   1.9245 B(  9-C , 11-O ) :   1.9469

FINAL SINGLE POINT ENERGY      -764.911473285593

DIPOLE MOMENT
-------------
                                X             Y             Z
Electronic contribution:     -0.14146       2.86213       5.36612
Nuclear contribution   :      0.06800      -2.90834      -4.66309
                        -----------------------------------------
Total Dipole Moment    :     -0.07346      -0.04622       0.70304
                        -----------------------------------------
Magnitude (a.u.)       :      0.70838
Magnitude (Debye)      :      1.80055

VIBRATIONAL FREQUENCIES
-----------------------

Scaling factor for frequencies =  1.000000000  (already applied!)

   0:         0.00 cm**-1
   1:         0.00 cm**-1
   2:         0.00 cm**-1
   3:         0.00 cm**-1
   4:         0.00 cm**-1
   5:         0.00 cm**-1
   6:        38.86 cm**-1
   7:        48.50 cm**-1
   8:        58.01 cm**-1
   9:        64.66 cm**-1
  10:        70.20 cm**-1
  11:        76.87 cm**-1
  12:        77.04 cm**-1
  13:        79.22 cm**-1
  14:        87.80 cm**-1
  15:       162.26 cm**-1
  16:       216.36 cm**-1
  17:       348.50 cm**-1
  18:       356.86 cm**-1
  19:       390.39 cm**-1
  20:       396.14 cm**-1
  21:       405.09 cm**-1
  22:       405.99 cm**-1
  23:       413.59 cm**-1
  24:       430.19 cm**-1
  25:       444.73 cm**-1
  26:       494.24 cm**-1
  27:       502.22 cm**-1
  28:       516.94 cm**-1
  29:       542.33 cm**-1
  30:       597.73 cm**-1
  31:       611.57 cm**-1
  32:       619.60 cm**-1
  33:      1523.40 cm**-1
  34:      1932.37 cm**-1
  35:      1963.59 cm**-1
  36:      1971.08 cm**-1
  37:      1990.68 cm**-1
  38:      2081.46 cm**-1

IR SPECTRUM
-----------

 Mode   freq       eps      Int      T**2         TX        TY        TZ
       cm**-1   L/(mol*cm) km/mol    a.u.
----------------------------------------------------------------------------
  6:     38.86   0.000000    0.00  0.000002  ( 0.000766 -0.000830 -0.001052)
  7:     48.50   0.000014    0.07  0.000091  (-0.009474  0.000952 -0.000067)
  8:     58.01   0.000015    0.07  0.000078  (-0.000677 -0.008597 -0.001962)
  9:     64.66   0.000007    0.03  0.000031  ( 0.005588 -0.000402  0.000141)
 10:     70.20   0.000017    0.09  0.000076  ( 0.000154  0.003008  0.008201)
 11:     76.87   0.000041    0.21  0.000166  (-0.012130  0.004316 -0.000116)
 12:     77.04   0.000105    0.53  0.000426  (-0.003658 -0.019409 -0.005969)
 13:     79.22   0.000162    0.82  0.000636  ( 0.024910 -0.003338  0.002188)
 14:     87.80   0.000143    0.72  0.000508  (-0.002370 -0.022337 -0.001757)
 15:    162.26   0.000127    0.64  0.000245  ( 0.015447 -0.001422  0.002033)
 16:    216.36   0.001603    8.10  0.002312  ( 0.005699  0.006869 -0.047245)
 17:    348.50   0.004104   20.74  0.003674  ( 0.000835  0.046417  0.038978)
 18:    356.86   0.000002    0.01  0.000002  ( 0.000820  0.000768  0.000820)
 19:    390.39   0.008012   40.49  0.006405  ( 0.005588  0.079739  0.003900)
 20:    396.14   0.006830   34.52  0.005380  (-0.072613  0.006919 -0.007729)
 21:    405.09   0.000141    0.71  0.000109  (-0.002548  0.008409  0.005606)
 22:    405.99   0.001105    5.58  0.000849  (-0.028768  0.002717 -0.003796)
 23:    413.59   0.000222    1.12  0.000167  ( 0.002364  0.011752  0.004853)
 24:    430.19   0.004655   23.52  0.003377  (-0.007792 -0.021677  0.053348)
 25:    444.73   0.000321    1.62  0.000225  ( 0.001470  0.014210 -0.004586)
 26:    494.24   0.000045    0.23  0.000028  (-0.005254  0.000806 -0.000358)
 27:    502.22   0.001300    6.57  0.000808  ( 0.028141 -0.002015  0.003426)
 28:    516.94   0.002133   10.78  0.001288  (-0.004183 -0.003356  0.035484)
 29:    542.33   0.000255    1.29  0.000147  ( 0.000553 -0.006669 -0.010094)
 30:    597.73   0.013921   70.35  0.007268  (-0.084373  0.008783 -0.008488)
 31:    611.57   0.015895   80.33  0.008111  (-0.007995 -0.088404 -0.015219)
 32:    619.60   0.024646  124.55  0.012413  (-0.013983 -0.025433  0.107568)
 33:   1523.40   0.180819  913.79  0.037040  (-0.018835  0.009702  0.191288)
 34:   1932.37   0.255129  1289.32  0.041201  ( 0.026068  0.048365 -0.195404)
 35:   1963.59   0.520624  2631.02  0.082740  (-0.285038  0.021371 -0.032203)
 36:   1971.08   0.504470  2549.38  0.079868  ( 0.012516  0.275227  0.062944)
 37:   1990.68   0.015651   79.09  0.002454  ( 0.004485  0.049247  0.002850)
 38:   2081.46   0.020316  102.67  0.003046  (-0.007074 -0.017040  0.052014)

--------------------------
THERMOCHEMISTRY AT 298.15K
--------------------------

Temperature         ... 298.15 K
Pressure            ... 1.00 atm
Total Mass          ... 266.00 AMU

Throughout the following assumptions are being made:
  (1) The electronic state is orbitally nondegenerate
  (2) There are no thermally accessible electronically excited states
  (3) Hindered rotations indicated by low frequency modes are not
      treated as such but are treated as vibrations and this may
      cause some error
  (4) All equations used are the standard statistical mechanics
      equations for an ideal gas
  (5) All vibrations are strictly harmonic

freq.      38.86  E(vib)   ...       0.54
freq.      48.50  E(vib)   ...       0.53
freq.      58.01  E(vib)   ...       0.51
freq.      64.66  E(vib)   ...       0.50
freq.      70.20  E(vib)   ...       0.50
freq.      76.87  E(vib)   ...       0.49
freq.      77.04  E(vib)   ...       0.49
freq.      79.22  E(vib)   ...       0.49
freq.      87.80  E(vib)   ...       0.48
freq.     162.26  E(vib)   ...       0.39
freq.     216.36  E(vib)   ...       0.34
freq.     348.50  E(vib)   ...       0.23
freq.     356.86  E(vib)   ...       0.22
freq.     390.39  E(vib)   ...       0.20
freq.     396.14  E(vib)   ...       0.20
freq.     405.09  E(vib)   ...       0.19
freq.     405.99  E(vib)   ...       0.19
freq.     413.59  E(vib)   ...       0.19
freq.     430.19  E(vib)   ...       0.18
freq.     444.73  E(vib)   ...       0.17
freq.     494.24  E(vib)   ...       0.14
freq.     502.22  E(vib)   ...       0.14
freq.     516.94  E(vib)   ...       0.13
freq.     542.33  E(vib)   ...       0.12
freq.     597.73  E(vib)   ...       0.10
freq.     611.57  E(vib)   ...       0.10
freq.     619.60  E(vib)   ...       0.09
freq.    1523.40  E(vib)   ...       0.00
freq.    1932.37  E(vib)   ...       0.00
freq.    1963.59  E(vib)   ...       0.00
freq.    1971.08  E(vib)   ...       0.00
freq.    1990.68  E(vib)   ...       0.00
freq.    2081.46  E(vib)   ...       0.00

------------
INNER ENERGY
------------

The inner energy is: U= E(el) + E(ZPE) + E(vib) + E(rot) + E(trans)
    E(el)   - is the total energy from the electronic structure calculation
              = E(kin-el) + E(nuc-el) + E(el-el) + E(nuc-nuc)
    E(ZPE)  - the the zero temperature vibrational energy from the frequency calculation
    E(vib)  - the the finite temperature correction to E(ZPE) due to population
              of excited vibrational states
    E(rot)  - is the rotational thermal energy
    E(trans)- is the translational thermal energy

Summary of contributions to the inner energy U:
Electronic energy                ...   -764.91147329 Eh
Zero point energy                ...      0.04537761 Eh      28.47 kcal/mol
Thermal vibrational correction   ...      0.01249545 Eh       7.84 kcal/mol
Thermal rotational correction    ...      0.00141627 Eh       0.89 kcal/mol
Thermal translational correction ...      0.00141627 Eh       0.89 kcal/mol
-----------------------------------------------------------------------
Total thermal energy                   -764.85076769 Eh

Summary of corrections to the electronic energy:
(perhaps to be used in another calculation)
Total thermal correction                  0.01532799 Eh       9.62 kcal/mol
Non-thermal (ZPE) correction              0.04537761 Eh      28.47 kcal/mol
-----------------------------------------------------------------------
Total correction                          0.06070560 Eh      38.09 kcal/mol

--------
ENTHALPY
--------

The enthalpy is H = U + kB*T
                kB is Boltzmann's constant
Total free energy                 ...   -764.85076769 Eh
Thermal Enthalpy correction       ...      0.00094421 Eh       0.59 kcal/mol
-----------------------------------------------------------------------
Total Enthalpy                    ...   -764.84982348 Eh

Note: Only C1 symmetry has been detected, increase convergence thresholds
      if your molecule has a higher symmetry. Symmetry factor of 1.0 is
      used for the rotational entropy correction.

Note: Rotational entropy computed according to Herzberg
Infrared and Raman Spectra, Chapter V,1, Van Nostrand Reinhold, 1945
Point Group:  C1, Symmetry Number:   1
Rotational constants in cm-1:     0.020617     0.019417     0.018668

Vibrational entropy computed according to the QRRHO of S. Grimme
Chem.Eur.J. 2012 18 9955

-------
ENTROPY
-------

The entropy contributions are T*S = T*(S(el)+S(vib)+S(rot)+S(trans))
     S(el)   - electronic entropy
     S(vib)  - vibrational entropy
     S(rot)  - rotational entropy
     S(trans)- translational entropy
The entropies will be listed as multiplied by the temperature to get
units of energy

Electronic entropy                ...      0.00000000 Eh      0.00 kcal/mol
Vibrational entropy               ...      0.02288080 Eh     14.36 kcal/mol
Rotational entropy                ...      0.01508345 Eh      9.46 kcal/mol
Translational entropy             ...      0.02025680 Eh     12.71 kcal/mol
-----------------------------------------------------------------------
Final entropy term                ...      0.05822105 Eh     36.53 kcal/mol

In case the symmetry of your molecule has not been determined correctly
or in case you have a reason to use a different symmetry number we print
out the resulting rotational entropy values for sn=1,12 :
 --------------------------------------------------------
|  sn= 1 | S(rot)=       0.01508345 Eh      9.46 kcal/mol|
|  sn= 2 | S(rot)=       0.01442899 Eh      9.05 kcal/mol|
|  sn= 3 | S(rot)=       0.01404616 Eh      8.81 kcal/mol|
|  sn= 4 | S(rot)=       0.01377454 Eh      8.64 kcal/mol|
|  sn= 5 | S(rot)=       0.01356385 Eh      8.51 kcal/mol|
|  sn= 6 | S(rot)=       0.01339171 Eh      8.40 kcal/mol|
|  sn= 7 | S(rot)=       0.01324616 Eh      8.31 kcal/mol|
|  sn= 8 | S(rot)=       0.01312008 Eh      8.23 kcal/mol|
|  sn= 9 | S(rot)=       0.01300887 Eh      8.16 kcal/mol|
|  sn=10 | S(rot)=       0.01290939 Eh      8.10 kcal/mol|
|  sn=11 | S(rot)=       0.01281940 Eh      8.04 kcal/mol|
|  sn=12 | S(rot)=       0.01273725 Eh      7.99 kcal/mol|
 --------------------------------------------------------

-------------------
GIBBS FREE ENERGY
-------------------

The Gibbs free energy is G = H - T*S

Total enthalpy                    ...   -764.84982348 Eh
Total entropy correction          ...     -0.05822105 Eh    -36.53 kcal/mol
-----------------------------------------------------------------------
Final Gibbs free energy         ...   -764.90804452 Eh

For completeness - the Gibbs free energy minus the electronic energy
G-E(el)                           ...      0.00342876 Eh      2.15 kcal/mol

                             ****ORCA TERMINATED NORMALLY****
TOTAL RUN TIME: 0 days 1 hours 17 minutes 24 seconds 233 msec
