                         Program Version 5.0.4 -  RELEASE  -
|  1> !B3LYP def2-TZVPD OPT FREQ TightSCF PAL8
|  2>
|  3> %scf
|  4>   MaxIter 300
|  5> end
|  6>
|  7> * xyz 0 2
|  8> O         -1.11634        3.48152        0.48558
|  9> O         -4.51866        0.52355       -0.57545
| 10> C         -1.17349        2.37455        0.27643
| 11> C         -3.40501        0.43512       -0.41945
| 12> Mo        -1.28303        0.26611       -0.12169
| 13> C         -1.61319       -0.11095        1.96743
| 14> O         -1.78639       -0.30902        3.06430
| 15> N         -0.95501        0.64028       -2.15648
| 16> C          0.83693        0.09688        0.18256
| 17> C         -1.39357       -1.84568       -0.50896
| 18> O          1.95003        0.00770        0.34200
| 19> O         -1.45208       -2.95363       -0.71232
| 20> O         -1.54099        0.01667       -2.98763
| 21> **                         ****END OF INPUT****
 Total Charge           Charge          ....    0
 Multiplicity           Mult            ....    2
 Number of Electrons    NEL             ....   99
FINAL SINGLE POINT ENERGY      -764.837121781273
FINAL SINGLE POINT ENERGY      -764.846745412283
FINAL SINGLE POINT ENERGY      -764.855858065464
FINAL SINGLE POINT ENERGY      -764.856963833773
FINAL SINGLE POINT ENERGY      -764.857581376012
FINAL SINGLE POINT ENERGY      -764.857998566595
FINAL SINGLE POINT ENERGY      -764.858205069778
FINAL SINGLE POINT ENERGY      -764.858272977765
FINAL SINGLE POINT ENERGY      -764.858308881426
FINAL SINGLE POINT ENERGY      -764.858328220467
FINAL SINGLE POINT ENERGY      -764.858387980634
FINAL SINGLE POINT ENERGY      -764.858388511423
FINAL SINGLE POINT ENERGY      -764.858403931952
FINAL SINGLE POINT ENERGY      -764.858405820453
FINAL SINGLE POINT ENERGY      -764.858410341401
FINAL SINGLE POINT ENERGY      -764.858412030658
FINAL SINGLE POINT ENERGY      -764.858414288535
FINAL SINGLE POINT ENERGY      -764.858417380917
FINAL SINGLE POINT ENERGY      -764.858420150487
                    ***********************HURRAY********************

CARTESIAN COORDINATES (ANGSTROEM)
---------------------------------
  O     -1.158544    3.417981    0.486301
  O     -4.542136    0.488256   -0.354079
  C     -1.220395    2.307870    0.240453
  C     -3.409551    0.410399   -0.285413
  Mo    -1.338208    0.259677   -0.122715
  C     -1.569195   -0.079987    1.879223
  O     -1.698869   -0.310713    2.990979
  N     -1.105089    0.555259   -2.150201
  C      0.718532    0.091496    0.143734
  C     -1.452498   -1.783836   -0.449975
  O      1.839380   -0.006858    0.310474
  O     -1.517214   -2.910483   -0.603096
  O     -0.997012    0.184038   -3.249365

 Multiplicity           Mult            ....    2
 Number of Electrons    NEL             ....   99
 Basis Dimension        Dim             ....  502

ORBITAL ENERGIES
----------------
                 SPIN UP ORBITALS
  NO   OCC          E(Eh)            E(eV)
   0   1.0000     -19.249869      -523.8156
   1   1.0000     -19.233399      -523.3674
   2   1.0000     -19.233192      -523.3618
   3   1.0000     -19.227067      -523.1951
   4   1.0000     -19.226739      -523.1862
   5   1.0000     -19.219009      -522.9758
   6   1.0000     -14.462052      -393.5324
   7   1.0000     -10.311482      -280.5897
   8   1.0000     -10.311365      -280.5865
   9   1.0000     -10.304375      -280.3963
  10   1.0000     -10.304035      -280.3870
  11   1.0000     -10.299757      -280.2706
  12   1.0000      -2.582496       -70.2733
  13   1.0000      -1.586647       -43.1749
  14   1.0000      -1.585702       -43.1491
  15   1.0000      -1.582910       -43.0732
  16   1.0000      -1.231078       -33.4993
  17   1.0000      -1.166883       -31.7525
  18   1.0000      -1.166628       -31.7456
  19   1.0000      -1.160248       -31.5720
  20   1.0000      -1.159925       -31.5632
  21   1.0000      -1.151655       -31.3381
  22   1.0000      -0.711757       -19.3679
  23   1.0000      -0.605395       -16.4736
  24   1.0000      -0.587231       -15.9794
  25   1.0000      -0.585417       -15.9300
  26   1.0000      -0.580239       -15.7891
  27   1.0000      -0.579564       -15.7707
  28   1.0000      -0.541853       -14.7446
  29   1.0000      -0.527694       -14.3593
  30   1.0000      -0.513059       -13.9611
  31   1.0000      -0.501955       -13.6589
  32   1.0000      -0.494191       -13.4476
  33   1.0000      -0.489714       -13.3258
  34   1.0000      -0.488617       -13.2960
  35   1.0000      -0.487657       -13.2698
  36   1.0000      -0.484112       -13.1734
  37   1.0000      -0.482419       -13.1273
  38   1.0000      -0.481033       -13.0896
  39   1.0000      -0.479002       -13.0343
  40   1.0000      -0.475041       -12.9265
  41   1.0000      -0.471025       -12.8172
  42   1.0000      -0.470888       -12.8135
  43   1.0000      -0.446091       -12.1387
  44   1.0000      -0.427854       -11.6425
  45   1.0000      -0.423001       -11.5104
  46   1.0000      -0.274362        -7.4658
  47   1.0000      -0.260152        -7.0791
  48   1.0000      -0.256903        -6.9907
  49   1.0000      -0.205163        -5.5828
  50   0.0000      -0.118888        -3.2351
  51   0.0000      -0.081754        -2.2246
  52   0.0000      -0.067634        -1.8404
  53   0.0000      -0.062389        -1.6977
  54   0.0000      -0.051296        -1.3958

                 SPIN DOWN ORBITALS
  NO   OCC          E(Eh)            E(eV)
   0   1.0000     -19.239010      -523.5201
   1   1.0000     -19.233445      -523.3686
   2   1.0000     -19.233254      -523.3635
   3   1.0000     -19.226862      -523.1895
   4   1.0000     -19.226762      -523.1868
   5   1.0000     -19.218299      -522.9565
   6   1.0000     -14.448026      -393.1508
   7   1.0000     -10.311488      -280.5899
   8   1.0000     -10.311385      -280.5871
   9   1.0000     -10.304205      -280.3917
  10   1.0000     -10.303525      -280.3732
  11   1.0000     -10.299191      -280.2552
  12   1.0000      -2.582501       -70.2734
  13   1.0000      -1.586599       -43.1736
  14   1.0000      -1.586234       -43.1636
  15   1.0000      -1.582492       -43.0618
  16   1.0000      -1.210233       -32.9321
  17   1.0000      -1.166956       -31.7545
  18   1.0000      -1.166727       -31.7482
  19   1.0000      -1.159969       -31.5644
  20   1.0000      -1.159815       -31.5602
  21   1.0000      -1.150411       -31.3043
  22   1.0000      -0.676159       -18.3992
  23   1.0000      -0.604304       -16.4439
  24   1.0000      -0.586843       -15.9688
  25   1.0000      -0.585497       -15.9322
  26   1.0000      -0.579533       -15.7699
  27   1.0000      -0.577479       -15.7140
  28   1.0000      -0.521274       -14.1846
  29   1.0000      -0.502004       -13.6602
  30   1.0000      -0.499961       -13.6046
  31   1.0000      -0.494132       -13.4460
  32   1.0000      -0.488609       -13.2957
  33   1.0000      -0.488205       -13.2847
  34   1.0000      -0.487517       -13.2660
  35   1.0000      -0.486730       -13.2446
  36   1.0000      -0.482078       -13.1180
  37   1.0000      -0.480389       -13.0721
  38   1.0000      -0.478331       -13.0161
  39   1.0000      -0.474945       -12.9239
  40   1.0000      -0.471018       -12.8170
  41   1.0000      -0.469529       -12.7765
  42   1.0000      -0.463934       -12.6243
  43   1.0000      -0.441208       -12.0059
  44   1.0000      -0.427847       -11.6423
  45   1.0000      -0.420243       -11.4354
  46   1.0000      -0.259044        -7.0489
  47   1.0000      -0.256872        -6.9898
  48   1.0000      -0.250538        -6.8175
  49   0.0000      -0.104342        -2.8393
  50   0.0000      -0.090014        -2.4494
  51   0.0000      -0.078770        -2.1434
  52   0.0000      -0.063880        -1.7383
  53   0.0000      -0.061224        -1.6660

MULLIKEN ATOMIC CHARGES AND SPIN POPULATIONS
--------------------------------------------
   0 O :   -0.214195    0.007436
   1 O :   -0.197269   -0.001764
   2 C :    0.262007    0.007231
   3 C :    0.213288   -0.005224
   4 Mo:    0.271049    0.034446
   5 C :    0.108592    0.041100
   6 O :   -0.209349    0.021133
   7 N :    0.067175    0.592161
   8 C :    0.209703   -0.006142
   9 C :    0.213175   -0.010885
  10 O :   -0.197379   -0.002362
  11 O :   -0.201227   -0.001495
  12 O :   -0.325571    0.324363
Sum of atomic charges         :   -0.0000000

LOEWDIN ATOMIC CHARGES AND SPIN POPULATIONS
-------------------------------------------
   0 O :    0.111167    0.008121
   1 O :    0.120725   -0.001379
   2 C :   -0.213547    0.026364
   3 C :   -0.201390   -0.002000
   4 Mo:    0.671379   -0.006408
   5 C :   -0.254185    0.041597
   6 O :    0.105832    0.024928
   7 N :   -0.167825    0.542927
   8 C :   -0.202860   -0.002964
   9 C :   -0.213684    0.003305
  10 O :    0.121105   -0.001966
  11 O :    0.115510   -0.000042
  12 O :    0.007772    0.367516

  Mayer bond orders larger than 0.100000
B(  0-O ,  2-C ) :   2.0822 B(  1-O ,  3-C ) :   2.1001 B(  2-C ,  4-Mo) :   0.9365
B(  2-C ,  7-N ) :  -0.1084 B(  3-C ,  4-Mo) :   0.8693 B(  4-Mo,  5-C ) :   0.8329
B(  4-Mo,  7-N ) :   0.7422 B(  4-Mo,  8-C ) :   0.8643 B(  4-Mo,  9-C ) :   0.8487
B(  4-Mo, 12-O ) :   0.1637 B(  5-C ,  6-O ) :   2.0371 B(  7-N , 12-O ) :   1.4402
B(  8-C , 10-O ) :   2.0979 B(  9-C , 11-O ) :   2.0761

FINAL SINGLE POINT ENERGY      -764.858421212568

DIPOLE MOMENT
-------------
                                X             Y             Z
Electronic contribution:      0.09129       2.78284      -0.62124
Nuclear contribution   :     -0.08711      -2.71035       0.57195
                        -----------------------------------------
Total Dipole Moment    :      0.00418       0.07249      -0.04929
                        -----------------------------------------
Magnitude (a.u.)       :      0.08776
Magnitude (Debye)      :      0.22307

VIBRATIONAL FREQUENCIES
-----------------------

Scaling factor for frequencies =  1.000000000  (already applied!)

   0:         0.00 cm**-1
   1:         0.00 cm**-1
   2:         0.00 cm**-1
   3:         0.00 cm**-1
   4:         0.00 cm**-1
   5:         0.00 cm**-1
   6:        35.54 cm**-1
   7:        55.03 cm**-1
   8:        57.24 cm**-1
   9:        67.43 cm**-1
  10:        78.55 cm**-1
  11:        79.31 cm**-1
  12:        81.63 cm**-1
  13:        84.19 cm**-1
  14:        89.46 cm**-1
  15:       182.76 cm**-1
  16:       247.09 cm**-1
  17:       344.91 cm**-1
  18:       345.98 cm**-1
  19:       354.91 cm**-1
  20:       360.74 cm**-1
  21:       381.93 cm**-1
  22:       387.11 cm**-1
  23:       389.63 cm**-1
  24:       407.68 cm**-1
  25:       415.18 cm**-1
  26:       480.86 cm**-1
  27:       497.81 cm**-1
  28:       514.80 cm**-1
  29:       517.99 cm**-1
  30:       580.46 cm**-1
  31:       592.64 cm**-1
  32:       600.54 cm**-1
  33:      1786.16 cm**-1
  34:      2049.38 cm**-1
  35:      2056.69 cm**-1
  36:      2071.92 cm**-1
  37:      2090.69 cm**-1
  38:      2167.05 cm**-1

IR SPECTRUM
-----------

 Mode   freq       eps      Int      T**2         TX        TY        TZ
       cm**-1   L/(mol*cm) km/mol    a.u.
----------------------------------------------------------------------------
  6:     35.54   0.000034    0.17  0.000300  ( 0.017305 -0.000575  0.000567)
  7:     55.03   0.000001    0.01  0.000006  (-0.000405  0.000373  0.002467)
  8:     57.24   0.000022    0.11  0.000121  ( 0.000241  0.010516  0.003281)
  9:     67.43   0.000027    0.14  0.000125  ( 0.011103 -0.001156  0.000689)
 10:     78.55   0.000057    0.29  0.000225  (-0.002608 -0.010995  0.009847)
 11:     79.31   0.000009    0.04  0.000035  (-0.005657  0.001519 -0.000560)
 12:     81.63   0.000205    1.03  0.000783  ( 0.002625 -0.018620 -0.020710)
 13:     84.19   0.000206    1.04  0.000763  (-0.027307 -0.000048 -0.004202)
 14:     89.46   0.000172    0.87  0.000600  (-0.001502 -0.021098  0.012360)
 15:    182.76   0.000210    1.06  0.000358  ( 0.018665 -0.001440  0.002827)
 16:    247.09   0.000167    0.84  0.000211  ( 0.001808 -0.006553 -0.012829)
 17:    344.91   0.000027    0.14  0.000025  ( 0.002905  0.002580  0.003095)
 18:    345.98   0.006968   35.22  0.006285  ( 0.003488 -0.048376 -0.062711)
 19:    354.91   0.010597   53.55  0.009318  (-0.009876 -0.095004  0.013938)
 20:    360.74   0.007059   35.67  0.006106  ( 0.077372 -0.007434  0.008030)
 21:    381.93   0.000472    2.39  0.000386  ( 0.001507 -0.006635 -0.018432)
 22:    387.11   0.003907   19.75  0.003150  ( 0.055092 -0.004171  0.009867)
 23:    389.63   0.001011    5.11  0.000809  ( 0.014266  0.000091 -0.024613)
 24:    407.68   0.003692   18.66  0.002826  (-0.004157 -0.020022  0.049070)
 25:    415.18   0.000077    0.39  0.000058  (-0.000711 -0.006572  0.003717)
 26:    480.86   0.000020    0.10  0.000013  (-0.003433  0.000980  0.000627)
 27:    497.81   0.000434    2.19  0.000272  ( 0.016326 -0.001549  0.001779)
 28:    514.80   0.000763    3.85  0.000462  ( 0.002288  0.001652 -0.021314)
 29:    517.99   0.000184    0.93  0.000111  (-0.002429 -0.010244 -0.000411)
 30:    580.46   0.012262   61.96  0.006592  ( 0.080771 -0.001835  0.008039)
 31:    592.64   0.013375   67.59  0.007043  ( 0.000517 -0.080383 -0.024105)
 32:    600.54   0.015729   79.49  0.008173  (-0.009593 -0.031136  0.084332)
 33:   1786.16   0.205466  1038.34  0.035897  (-0.020775 -0.009342  0.188092)
 34:   2049.38   0.174292  880.80  0.026540  (-0.019280 -0.033937  0.158166)
 35:   2056.69   0.418187  2113.35  0.063452  (-0.013492 -0.247577 -0.044445)
 36:   2071.92   0.398666  2014.70  0.060045  ( 0.243008 -0.018502  0.025504)
 37:   2090.69   0.001907    9.64  0.000285  (-0.001111  0.003583 -0.016448)
 38:   2167.05   0.017456   88.21  0.002514  (-0.005733 -0.006971  0.049317)

--------------------------
THERMOCHEMISTRY AT 298.15K
--------------------------

Temperature         ... 298.15 K
Pressure            ... 1.00 atm
Total Mass          ... 266.00 AMU

Throughout the following assumptions are being made:
  (1) The electronic state is orbitally nondegenerate
      but the spin degeneracy is treated
  (2) There are no thermally accessible electronically excited states
  (3) Hindered rotations indicated by low frequency modes are not
      treated as such but are treated as vibrations and this may
      cause some error
  (4) All equations used are the standard statistical mechanics
      equations for an ideal gas
  (5) All vibrations are strictly harmonic

freq.      35.54  E(vib)   ...       0.54
freq.      55.03  E(vib)   ...       0.52
freq.      57.24  E(vib)   ...       0.51
freq.      67.43  E(vib)   ...       0.50
freq.      78.55  E(vib)   ...       0.49
freq.      79.31  E(vib)   ...       0.49
freq.      81.63  E(vib)   ...       0.48
freq.      84.19  E(vib)   ...       0.48
freq.      89.46  E(vib)   ...       0.47
freq.     182.76  E(vib)   ...       0.37
freq.     247.09  E(vib)   ...       0.31
freq.     344.91  E(vib)   ...       0.23
freq.     345.98  E(vib)   ...       0.23
freq.     354.91  E(vib)   ...       0.22
freq.     360.74  E(vib)   ...       0.22
freq.     381.93  E(vib)   ...       0.21
freq.     387.11  E(vib)   ...       0.20
freq.     389.63  E(vib)   ...       0.20
freq.     407.68  E(vib)   ...       0.19
freq.     415.18  E(vib)   ...       0.19
freq.     480.86  E(vib)   ...       0.15
freq.     497.81  E(vib)   ...       0.14
freq.     514.80  E(vib)   ...       0.13
freq.     517.99  E(vib)   ...       0.13
freq.     580.46  E(vib)   ...       0.11
freq.     592.64  E(vib)   ...       0.10
freq.     600.54  E(vib)   ...       0.10
freq.    1786.16  E(vib)   ...       0.00
freq.    2049.38  E(vib)   ...       0.00
freq.    2056.69  E(vib)   ...       0.00
freq.    2071.92  E(vib)   ...       0.00
freq.    2090.69  E(vib)   ...       0.00
freq.    2167.05  E(vib)   ...       0.00

------------
INNER ENERGY
------------

The inner energy is: U= E(el) + E(ZPE) + E(vib) + E(rot) + E(trans)
    E(el)   - is the total energy from the electronic structure calculation
              = E(kin-el) + E(nuc-el) + E(el-el) + E(nuc-nuc)
    E(ZPE)  - the the zero temperature vibrational energy from the frequency calculation
    E(vib)  - the the finite temperature correction to E(ZPE) due to population
              of excited vibrational states
    E(rot)  - is the rotational thermal energy
    E(trans)- is the translational thermal energy

Summary of contributions to the inner energy U:
Electronic energy                ...   -764.85842121 Eh
Zero point energy                ...      0.04659607 Eh      29.24 kcal/mol
Thermal vibrational correction   ...      0.01262135 Eh       7.92 kcal/mol
Thermal rotational correction    ...      0.00141627 Eh       0.89 kcal/mol
Thermal translational correction ...      0.00141627 Eh       0.89 kcal/mol
-----------------------------------------------------------------------
Total thermal energy                   -764.79637126 Eh

Summary of corrections to the electronic energy:
(perhaps to be used in another calculation)
Total thermal correction                  0.01545389 Eh       9.70 kcal/mol
Non-thermal (ZPE) correction              0.04659607 Eh      29.24 kcal/mol
-----------------------------------------------------------------------
Total correction                          0.06204996 Eh      38.94 kcal/mol

--------
ENTHALPY
--------

The enthalpy is H = U + kB*T
                kB is Boltzmann's constant
Total free energy                 ...   -764.79637126 Eh
Thermal Enthalpy correction       ...      0.00094421 Eh       0.59 kcal/mol
-----------------------------------------------------------------------
Total Enthalpy                    ...   -764.79542705 Eh

Note: Only C1 symmetry has been detected, increase convergence thresholds
      if your molecule has a higher symmetry. Symmetry factor of 1.0 is
      used for the rotational entropy correction.

Note: Rotational entropy computed according to Herzberg
Infrared and Raman Spectra, Chapter V,1, Van Nostrand Reinhold, 1945
Point Group:  C1, Symmetry Number:   1
Rotational constants in cm-1:     0.020070     0.019483     0.018818

Vibrational entropy computed according to the QRRHO of S. Grimme
Chem.Eur.J. 2012 18 9955

-------
ENTROPY
-------

The entropy contributions are T*S = T*(S(el)+S(vib)+S(rot)+S(trans))
     S(el)   - electronic entropy
     S(vib)  - vibrational entropy
     S(rot)  - rotational entropy
     S(trans)- translational entropy
The entropies will be listed as multiplied by the temperature to get
units of energy

Electronic entropy                ...      0.00065446 Eh      0.41 kcal/mol
Vibrational entropy               ...      0.02303248 Eh     14.45 kcal/mol
Rotational entropy                ...      0.01509075 Eh      9.47 kcal/mol
Translational entropy             ...      0.02025680 Eh     12.71 kcal/mol
-----------------------------------------------------------------------
Final entropy term                ...      0.05903448 Eh     37.04 kcal/mol

In case the symmetry of your molecule has not been determined correctly
or in case you have a reason to use a different symmetry number we print
out the resulting rotational entropy values for sn=1,12 :
 --------------------------------------------------------
|  sn= 1 | S(rot)=       0.01509075 Eh      9.47 kcal/mol|
|  sn= 2 | S(rot)=       0.01443629 Eh      9.06 kcal/mol|
|  sn= 3 | S(rot)=       0.01405346 Eh      8.82 kcal/mol|
|  sn= 4 | S(rot)=       0.01378184 Eh      8.65 kcal/mol|
|  sn= 5 | S(rot)=       0.01357115 Eh      8.52 kcal/mol|
|  sn= 6 | S(rot)=       0.01339901 Eh      8.41 kcal/mol|
|  sn= 7 | S(rot)=       0.01325346 Eh      8.32 kcal/mol|
|  sn= 8 | S(rot)=       0.01312738 Eh      8.24 kcal/mol|
|  sn= 9 | S(rot)=       0.01301617 Eh      8.17 kcal/mol|
|  sn=10 | S(rot)=       0.01291669 Eh      8.11 kcal/mol|
|  sn=11 | S(rot)=       0.01282670 Eh      8.05 kcal/mol|
|  sn=12 | S(rot)=       0.01274455 Eh      8.00 kcal/mol|
 --------------------------------------------------------

-------------------
GIBBS FREE ENERGY
-------------------

The Gibbs free energy is G = H - T*S

Total enthalpy                    ...   -764.79542705 Eh
Total entropy correction          ...     -0.05903448 Eh    -37.04 kcal/mol
-----------------------------------------------------------------------
Final Gibbs free energy         ...   -764.85446152 Eh

For completeness - the Gibbs free energy minus the electronic energy
G-E(el)                           ...      0.00395969 Eh      2.48 kcal/mol

                             ****ORCA TERMINATED NORMALLY****
TOTAL RUN TIME: 0 days 1 hours 57 minutes 11 seconds 136 msec
