                         Program Version 5.0.4 -  RELEASE  -
|  1> !B3LYP def2-TZVPD OPT FREQ TightSCF PAL8
|  2>
|  3> %scf
|  4>   MaxIter 300
|  5> end
|  6>
|  7> * xyz -1 1
|  8> Mo         1.30392        1.79866       -0.08309
|  9> C          3.44577        1.82090        0.08303
| 10> C          1.31982        3.89094       -0.57151
| 11> C         -0.83806        1.77471       -0.24899
| 12> C          1.28884       -0.29340        0.40512
| 13> O          1.32839        4.98944       -0.82748
| 14> O          4.57032        1.83218        0.17043
| 15> O          1.28111       -1.39188        0.66144
| 16> O         -1.96262        1.76171       -0.33566
| 17> C          1.47122        1.30977       -2.16856
| 18> O          1.55917        1.05286       -3.26341
| 19> Cl         1.11801        2.34183        2.23336
| 20> **                         ****END OF INPUT****
 Total Charge           Charge          ....   -1
 Multiplicity           Mult            ....    1
 Number of Electrons    NEL             ....  102
FINAL SINGLE POINT ENERGY     -1095.214664811122
FINAL SINGLE POINT ENERGY     -1095.230879028164
FINAL SINGLE POINT ENERGY     -1095.241871338294
FINAL SINGLE POINT ENERGY     -1095.243352389235
FINAL SINGLE POINT ENERGY     -1095.243770717020
FINAL SINGLE POINT ENERGY     -1095.243953316254
FINAL SINGLE POINT ENERGY     -1095.243992644210
FINAL SINGLE POINT ENERGY     -1095.244006075799
                    ***********************HURRAY********************

CARTESIAN COORDINATES (ANGSTROEM)
---------------------------------
  Mo     1.307637    1.786336   -0.131587
  C      3.360438    1.815902    0.044299
  C      1.323971    3.797861   -0.581389
  C     -0.746447    1.770875   -0.278526
  C      1.294668   -0.216940    0.355181
  O      1.336912    4.909015   -0.866776
  O      4.505911    1.825478    0.109111
  O      1.290601   -1.338334    0.597162
  O     -1.887937    1.755302   -0.393558
  C      1.455473    1.338573   -2.040628
  O      1.542806    1.072004   -3.170129
  Cl     1.101857    2.371648    2.411519

 Multiplicity           Mult            ....    1
 Number of Electrons    NEL             ....  102
 Basis Dimension        Dim             ....  471

ORBITAL ENERGIES
----------------

  NO   OCC          E(Eh)            E(eV)
   0   2.0000    -101.299832     -2756.5086
   1   2.0000     -19.079578      -519.1817
   2   2.0000     -19.079418      -519.1774
   3   2.0000     -19.079369      -519.1760
   4   2.0000     -19.079174      -519.1707
   5   2.0000     -19.043593      -518.2025
   6   2.0000     -10.156925      -276.3840
   7   2.0000     -10.156814      -276.3810
   8   2.0000     -10.156731      -276.3787
   9   2.0000     -10.156557      -276.3740
  10   2.0000     -10.132164      -275.7102
  11   2.0000      -9.231841      -251.2112
  12   2.0000      -6.989773      -190.2014
  13   2.0000      -6.986723      -190.1184
  14   2.0000      -6.986717      -190.1182
  15   2.0000      -2.418302       -65.8053
  16   2.0000      -1.422394       -38.7053
  17   2.0000      -1.422345       -38.7040
  18   2.0000      -1.417465       -38.5712
  19   2.0000      -1.011029       -27.5115
  20   2.0000      -1.010732       -27.5034
  21   2.0000      -1.010532       -27.4980
  22   2.0000      -1.010375       -27.4937
  23   2.0000      -0.971815       -26.4444
  24   2.0000      -0.585909       -15.9434
  25   2.0000      -0.456914       -12.4333
  26   2.0000      -0.442454       -12.0398
  27   2.0000      -0.438459       -11.9311
  28   2.0000      -0.438279       -11.9262
  29   2.0000      -0.417638       -11.3645
  30   2.0000      -0.352262        -9.5855
  31   2.0000      -0.344973        -9.3872
  32   2.0000      -0.337120        -9.1735
  33   2.0000      -0.337031        -9.1711
  34   2.0000      -0.334829        -9.1112
  35   2.0000      -0.334698        -9.1076
  36   2.0000      -0.334676        -9.1070
  37   2.0000      -0.331814        -9.0291
  38   2.0000      -0.328690        -8.9441
  39   2.0000      -0.326607        -8.8874
  40   2.0000      -0.303915        -8.2700
  41   2.0000      -0.303904        -8.2696
  42   2.0000      -0.294313        -8.0087
  43   2.0000      -0.270327        -7.3560
  44   2.0000      -0.270121        -7.3504
  45   2.0000      -0.150218        -4.0876
  46   2.0000      -0.132624        -3.6089
  47   2.0000      -0.132593        -3.6080
  48   2.0000      -0.103308        -2.8112
  49   2.0000      -0.076291        -2.0760
  50   2.0000      -0.076260        -2.0751
  51   0.0000       0.063553         1.7294
  52   0.0000       0.080758         2.1975
  53   0.0000       0.080834         2.1996
  54   0.0000       0.096476         2.6253
  55   0.0000       0.108507         2.9526

MULLIKEN ATOMIC CHARGES
-----------------------
   0 Mo:    0.247008
   1 C :    0.200322
   2 C :    0.199249
   3 C :    0.199264
   4 C :    0.201604
   5 O :   -0.282684
   6 O :   -0.282975
   7 O :   -0.282487
   8 O :   -0.283226
   9 C :    0.085120
  10 O :   -0.366014
  11 Cl:   -0.635180
Sum of atomic charges:   -1.0000000

LOEWDIN ATOMIC CHARGES
----------------------
   0 Mo:    0.537852
   1 C :   -0.270903
   2 C :   -0.270050
   3 C :   -0.271635
   4 C :   -0.270379
   5 O :    0.058564
   6 O :    0.058487
   7 O :    0.058859
   8 O :    0.058460
   9 C :   -0.364084
  10 O :    0.001603
  11 Cl:   -0.326774

  Mayer bond orders larger than 0.100000
B(  0-Mo,  1-C ) :   0.8534 B(  0-Mo,  2-C ) :   0.8547 B(  0-Mo,  3-C ) :   0.8546
B(  0-Mo,  4-C ) :   0.8508 B(  0-Mo,  9-C ) :   1.1022 B(  0-Mo, 10-O ) :   0.1052
B(  0-Mo, 11-Cl) :   1.0295 B(  1-C ,  6-O ) :   1.9824 B(  1-C , 11-Cl) :  -0.1138
B(  2-C ,  5-O ) :   1.9823 B(  2-C , 11-Cl) :  -0.1133 B(  3-C ,  8-O ) :   1.9819
B(  3-C , 11-Cl) :  -0.1149 B(  4-C ,  7-O ) :   1.9833 B(  4-C , 11-Cl) :  -0.1160
B(  9-C , 10-O ) :   1.8092

FINAL SINGLE POINT ENERGY     -1095.244007316775

DIPOLE MOMENT
-------------
                                X             Y             Z
Electronic contribution:      0.17475      -0.50438      -2.24363
Nuclear contribution   :     -0.07979       0.24220       1.10937
                        -----------------------------------------
Total Dipole Moment    :      0.09496      -0.26218      -1.13426
                        -----------------------------------------
Magnitude (a.u.)       :      1.16804
Magnitude (Debye)      :      2.96891

VIBRATIONAL FREQUENCIES
-----------------------

Scaling factor for frequencies =  1.000000000  (already applied!)

   0:         0.00 cm**-1
   1:         0.00 cm**-1
   2:         0.00 cm**-1
   3:         0.00 cm**-1
   4:         0.00 cm**-1
   5:         0.00 cm**-1
   6:        37.98 cm**-1
   7:        57.63 cm**-1
   8:        58.00 cm**-1
   9:        72.07 cm**-1
  10:        72.73 cm**-1
  11:        72.85 cm**-1
  12:        79.64 cm**-1
  13:        92.65 cm**-1
  14:        92.73 cm**-1
  15:       237.80 cm**-1
  16:       354.07 cm**-1
  17:       367.01 cm**-1
  18:       368.53 cm**-1
  19:       398.88 cm**-1
  20:       404.10 cm**-1
  21:       404.22 cm**-1
  22:       406.25 cm**-1
  23:       472.35 cm**-1
  24:       490.72 cm**-1
  25:       534.94 cm**-1
  26:       560.52 cm**-1
  27:       560.60 cm**-1
  28:       615.71 cm**-1
  29:       615.85 cm**-1
  30:       628.81 cm**-1
  31:      1916.08 cm**-1
  32:      1989.31 cm**-1
  33:      1989.88 cm**-1
  34:      2022.61 cm**-1
  35:      2111.94 cm**-1

IR SPECTRUM
-----------

 Mode   freq       eps      Int      T**2         TX        TY        TZ
       cm**-1   L/(mol*cm) km/mol    a.u.
----------------------------------------------------------------------------
  6:     37.98   0.000000    0.00  0.000000  (-0.000234 -0.000076  0.000022)
  7:     57.63   0.000003    0.01  0.000015  (-0.000310 -0.003712  0.000909)
  8:     58.00   0.000002    0.01  0.000012  ( 0.003361 -0.000158  0.000648)
  9:     72.07   0.000013    0.07  0.000057  (-0.000809  0.002178  0.007161)
 10:     72.73   0.000006    0.03  0.000024  (-0.004682  0.000671 -0.001339)
 11:     72.85   0.000006    0.03  0.000025  ( 0.000962  0.004323 -0.002339)
 12:     79.64   0.000000    0.00  0.000000  ( 0.000122 -0.000236  0.000040)
 13:     92.65   0.000387    1.96  0.001303  (-0.032338  0.014863 -0.006028)
 14:     92.73   0.000388    1.96  0.001305  ( 0.015756  0.031927 -0.006110)
 15:    237.80   0.007209   36.43  0.009460  (-0.007737  0.021654  0.094508)
 16:    354.07   0.000000    0.00  0.000000  ( 0.000551  0.000188 -0.000011)
 17:    367.01   0.013146   66.43  0.011178  (-0.000496 -0.102920  0.024184)
 18:    368.53   0.013062   66.01  0.011061  (-0.104820 -0.001477 -0.008441)
 19:    398.88   0.000006    0.03  0.000005  (-0.001106 -0.001288 -0.001455)
 20:    404.10   0.000198    1.00  0.000153  (-0.012239  0.000660 -0.001582)
 21:    404.22   0.000166    0.84  0.000128  (-0.000850 -0.011244  0.000819)
 22:    406.25   0.000329    1.67  0.000253  ( 0.002282 -0.003606 -0.015326)
 23:    472.35   0.000012    0.06  0.000008  (-0.000606  0.000499  0.002659)
 24:    490.72   0.000000    0.00  0.000000  (-0.000240 -0.000074 -0.000016)
 25:    534.94   0.000000    0.00  0.000000  ( 0.000039 -0.000435 -0.000157)
 26:    560.52   0.001057    5.34  0.000588  (-0.004941  0.022961 -0.006074)
 27:    560.60   0.001078    5.45  0.000600  (-0.023917 -0.005260 -0.000530)
 28:    615.71   0.011572   58.48  0.005865  (-0.075553  0.009258 -0.008441)
 29:    615.85   0.011550   58.37  0.005852  (-0.010778 -0.074219  0.015093)
 30:    628.81   0.011687   59.06  0.005800  (-0.006207  0.016583  0.074071)
 31:   1916.08   0.260751  1317.73  0.042467  (-0.015495  0.047556  0.199914)
 32:   1989.31   0.500282  2528.22  0.078479  (-0.279256 -0.002561 -0.022114)
 33:   1989.88   0.499685  2525.21  0.078363  (-0.002575 -0.272508  0.064003)
 34:   2022.61   0.000021    0.10  0.000003  ( 0.000214 -0.001540  0.000876)
 35:   2111.94   0.006555   33.12  0.000969  ( 0.002569 -0.007025 -0.030209)

--------------------------
THERMOCHEMISTRY AT 298.15K
--------------------------

Temperature         ... 298.15 K
Pressure            ... 1.00 atm
Total Mass          ... 271.44 AMU

Throughout the following assumptions are being made:
  (1) The electronic state is orbitally nondegenerate
  (2) There are no thermally accessible electronically excited states
  (3) Hindered rotations indicated by low frequency modes are not
      treated as such but are treated as vibrations and this may
      cause some error
  (4) All equations used are the standard statistical mechanics
      equations for an ideal gas
  (5) All vibrations are strictly harmonic

freq.      37.98  E(vib)   ...       0.54
freq.      57.63  E(vib)   ...       0.51
freq.      58.00  E(vib)   ...       0.51
freq.      72.07  E(vib)   ...       0.50
freq.      72.73  E(vib)   ...       0.49
freq.      72.85  E(vib)   ...       0.49
freq.      79.64  E(vib)   ...       0.49
freq.      92.65  E(vib)   ...       0.47
freq.      92.73  E(vib)   ...       0.47
freq.     237.80  E(vib)   ...       0.32
freq.     354.07  E(vib)   ...       0.22
freq.     367.01  E(vib)   ...       0.22
freq.     368.53  E(vib)   ...       0.21
freq.     398.88  E(vib)   ...       0.19
freq.     404.10  E(vib)   ...       0.19
freq.     404.22  E(vib)   ...       0.19
freq.     406.25  E(vib)   ...       0.19
freq.     472.35  E(vib)   ...       0.15
freq.     490.72  E(vib)   ...       0.15
freq.     534.94  E(vib)   ...       0.13
freq.     560.52  E(vib)   ...       0.11
freq.     560.60  E(vib)   ...       0.11
freq.     615.71  E(vib)   ...       0.10
freq.     615.85  E(vib)   ...       0.10
freq.     628.81  E(vib)   ...       0.09
freq.    1916.08  E(vib)   ...       0.00
freq.    1989.31  E(vib)   ...       0.00
freq.    1989.88  E(vib)   ...       0.00
freq.    2022.61  E(vib)   ...       0.00
freq.    2111.94  E(vib)   ...       0.00

------------
INNER ENERGY
------------

The inner energy is: U= E(el) + E(ZPE) + E(vib) + E(rot) + E(trans)
    E(el)   - is the total energy from the electronic structure calculation
              = E(kin-el) + E(nuc-el) + E(el-el) + E(nuc-nuc)
    E(ZPE)  - the the zero temperature vibrational energy from the frequency calculation
    E(vib)  - the the finite temperature correction to E(ZPE) due to population
              of excited vibrational states
    E(rot)  - is the rotational thermal energy
    E(trans)- is the translational thermal energy

Summary of contributions to the inner energy U:
Electronic energy                ...  -1095.24400732 Eh
Zero point energy                ...      0.04120400 Eh      25.86 kcal/mol
Thermal vibrational correction   ...      0.01139719 Eh       7.15 kcal/mol
Thermal rotational correction    ...      0.00141627 Eh       0.89 kcal/mol
Thermal translational correction ...      0.00141627 Eh       0.89 kcal/mol
-----------------------------------------------------------------------
Total thermal energy                  -1095.18857358 Eh

Summary of corrections to the electronic energy:
(perhaps to be used in another calculation)
Total thermal correction                  0.01422974 Eh       8.93 kcal/mol
Non-thermal (ZPE) correction              0.04120400 Eh      25.86 kcal/mol
-----------------------------------------------------------------------
Total correction                          0.05543374 Eh      34.79 kcal/mol

--------
ENTHALPY
--------

The enthalpy is H = U + kB*T
                kB is Boltzmann's constant
Total free energy                 ...  -1095.18857358 Eh
Thermal Enthalpy correction       ...      0.00094421 Eh       0.59 kcal/mol
-----------------------------------------------------------------------
Total Enthalpy                    ...  -1095.18762937 Eh

Note: Only C1 symmetry has been detected, increase convergence thresholds
      if your molecule has a higher symmetry. Symmetry factor of 1.0 is
      used for the rotational entropy correction.

Note: Rotational entropy computed according to Herzberg
Infrared and Raman Spectra, Chapter V,1, Van Nostrand Reinhold, 1945
Point Group:  C1, Symmetry Number:   1
Rotational constants in cm-1:     0.019548     0.019247     0.019238

Vibrational entropy computed according to the QRRHO of S. Grimme
Chem.Eur.J. 2012 18 9955

-------
ENTROPY
-------

The entropy contributions are T*S = T*(S(el)+S(vib)+S(rot)+S(trans))
     S(el)   - electronic entropy
     S(vib)  - vibrational entropy
     S(rot)  - rotational entropy
     S(trans)- translational entropy
The entropies will be listed as multiplied by the temperature to get
units of energy

Electronic entropy                ...      0.00000000 Eh      0.00 kcal/mol
Vibrational entropy               ...      0.02090661 Eh     13.12 kcal/mol
Rotational entropy                ...      0.01509853 Eh      9.47 kcal/mol
Translational entropy             ...      0.02028551 Eh     12.73 kcal/mol
-----------------------------------------------------------------------
Final entropy term                ...      0.05629064 Eh     35.32 kcal/mol

In case the symmetry of your molecule has not been determined correctly
or in case you have a reason to use a different symmetry number we print
out the resulting rotational entropy values for sn=1,12 :
 --------------------------------------------------------
|  sn= 1 | S(rot)=       0.01509853 Eh      9.47 kcal/mol|
|  sn= 2 | S(rot)=       0.01444407 Eh      9.06 kcal/mol|
|  sn= 3 | S(rot)=       0.01406124 Eh      8.82 kcal/mol|
|  sn= 4 | S(rot)=       0.01378961 Eh      8.65 kcal/mol|
|  sn= 5 | S(rot)=       0.01357892 Eh      8.52 kcal/mol|
|  sn= 6 | S(rot)=       0.01340678 Eh      8.41 kcal/mol|
|  sn= 7 | S(rot)=       0.01326123 Eh      8.32 kcal/mol|
|  sn= 8 | S(rot)=       0.01313516 Eh      8.24 kcal/mol|
|  sn= 9 | S(rot)=       0.01302395 Eh      8.17 kcal/mol|
|  sn=10 | S(rot)=       0.01292447 Eh      8.11 kcal/mol|
|  sn=11 | S(rot)=       0.01283448 Eh      8.05 kcal/mol|
|  sn=12 | S(rot)=       0.01275232 Eh      8.00 kcal/mol|
 --------------------------------------------------------

-------------------
GIBBS FREE ENERGY
-------------------

The Gibbs free energy is G = H - T*S

Total enthalpy                    ...  -1095.18762937 Eh
Total entropy correction          ...     -0.05629064 Eh    -35.32 kcal/mol
-----------------------------------------------------------------------
Final Gibbs free energy         ...  -1095.24392001 Eh

For completeness - the Gibbs free energy minus the electronic energy
G-E(el)                           ...      0.00008730 Eh      0.05 kcal/mol

                             ****ORCA TERMINATED NORMALLY****
TOTAL RUN TIME: 0 days 0 hours 33 minutes 53 seconds 106 msec
