                         Program Version 5.0.4 -  RELEASE  -
|  1> # input to generate an atomic fitting density for Os
|  2> # this file is used internally by ORCA
|  3> #
|  4> # atomic ground state (S=5): 1s2 2s2 2p6 3s2 3p6 4s2 3d10 4p6 5s2 4d10 5p6 6s2 4f14 5d6
|  5> #
|  6> ! RHF AllowRHF def2-SVP def2/J  NoMulliken NoLoewdin NoMayer NoPrintMOs
|  7>
|  8> %output print[p_atomdensfit] 2 end
|  9>
| 10> %scf
| 11>   guess hcore
| 12>   maxiter 1000
| 13>   maxdisk 500000
| 14>   SCFMode Conventional
| 15>   lshift 1.000000
| 16>   hftyp rohf
| 17>   rohf_case sahf
| 18>   rohf_numop   2
| 19>   rohf_norb[1] 5
| 20>   rohf_nel[1]  6
| 21> end
| 22>
| 23> %basis
| 24>   NewECP 76
| 25>     N_core 60
| 26>     lmax f
| 27>     s 3
| 28>       1      13.8757539000    885.4057191000  2
| 29>       2       6.9378769000     25.9670401000  2
| 30>       3       2.7670751000    -18.9094570000  2
| 31>     p 3
| 32>       1      10.1937926000    320.0839019000  2
| 33>       2       5.0968962000     26.1487649000  2
| 34>       3       2.7670751000    -18.9094570000  2
| 35>     d 3
| 36>       1       7.0992385000    115.0448431000  2
| 37>       2       3.5496192000     13.6225746000  2
| 38>       3       2.7670751000    -18.9094570000  2
| 39>     f 1
| 40>       1       2.7670751000     18.9094570000  2
| 41>   end
| 42>   NewGTO 76
| 43>     s 3
| 44>      1      30.0000000000      0.9881517203
| 45>      2      27.0000000000     -1.4700619919
| 46>      3      13.5247300050      1.4560441448
| 47>     s 1
| 48>      1       5.2402883472      1.0000000000
| 49>     s 1
| 50>      1       1.1306661245      1.0000000000
| 51>     s 1
| 52>      1       0.5168996692      1.0000000000
| 53>     s 1
| 54>      1       0.1322295354      1.0000000000
| 55>     s 1
| 56>      1       0.0472203188      1.0000000000
| 57>     p 4
| 58>      1      15.5000000000      0.3696785165
| 59>      2      14.0000000000     -0.5355179504
| 60>      3       5.5458290420      0.6871857809
| 61>      4       1.4139502215     -1.2522275443
| 62>     p 1
| 63>      1       0.6813668676      1.0000000000
| 64>     p 1
| 65>      1       0.3091145265      1.0000000000
| 66>     p 1
| 67>      1       0.0520000000      1.0000000000
| 68>     d 4
| 69>      1       8.2945059487      0.0525688853
| 70>      2       6.3060397430     -0.1241172847
| 71>      3       1.4890109110      0.4162938627
| 72>      4       0.6731539061      0.6676861931
| 73>     d 1
| 74>      1       0.2859080522      1.0000000000
| 75>     d 1
| 76>      1       0.1105801205      1.0000000000
| 77>     f 1
| 78>      1       0.5506500000      1.0000000000
| 79>     p 1
| 80>      1       0.0207659320      1.0000000000
| 81>   end
| 82>   NewAuxGTO 76
| 83>     S 1
| 84>      1 1310.72 1.0
| 85>     S 1
| 86>      1  655.36 1.0
| 87>     S 1
| 88>      1  327.68 1.0
| 89>     S 1
| 90>      1  163.84 1.0
| 91>     S 1
| 92>      1   81.82 1.0
| 93>     S 1
| 94>      1   40.96 1.0
| 95>     S 1
| 96>      1   20.48 1.0
| 97>     S 1
| 98>      1   10.24 1.0
| 99>     S 1
|100>      1    5.12 1.0
|101>     S 1
|102>      1    2.56 1.0
|103>     S 1
|104>      1    1.28 1.0
|105>     S 1
|106>      1    0.64 1.0
|107>     S 1
|108>      1    0.32 1.0
|109>     S 1
|110>      1    0.16 1.0
|111>     S 1
|112>      1    0.08 1.0
|113>     S 1
|114>      1    0.04 1.0
|115>     S 1
|116>      1    0.02 1.0
|117>     S 1
|118>      1    0.01 1.0
|119>   end
|120> end
|121>
|122> * xyz 0 5
|123> 76  0.0 0.0 0.0
|124> *
|125>
|126>
|127>                          ****END OF INPUT****

CARTESIAN COORDINATES (ANGSTROEM)
---------------------------------
  Os     0.000000    0.000000    0.000000

 Total Charge           Charge          ....    0
 Multiplicity           Mult            ....    5
 Number of Electrons    NEL             ....   16
 Basis Dimension        Dim             ....   43

ORBITAL ENERGIES
----------------

  NO   OCC          E(Eh)            E(eV)
   0   2.0000      -4.341561      -118.1399
   1   2.0000      -2.589297       -70.4583
   2   2.0000      -2.574636       -70.0594
   3   2.0000      -2.574590       -70.0581
   4   2.0000      -0.722265       -19.6538
   5   1.2000      -0.707866       -19.2620
   6   1.2000      -0.707863       -19.2619
   7   1.2000      -0.530149       -14.4261
   8   1.2000      -0.225631        -6.1397
   9   1.2000      -0.225482        -6.1357
  10   0.0000      -0.294094        -8.0027
  11   0.0000      -0.293941        -7.9985
  12   0.0000      -0.060874        -1.6565
  13   0.0000       0.039497         1.0748
  14   0.0000       0.044357         1.2070

FINAL SINGLE POINT ENERGY       -89.221406866107

DIPOLE MOMENT
-------------
                                X             Y             Z
Electronic contribution:      0.00000      -0.00002       0.00000
Nuclear contribution   :      0.00000       0.00000       0.00000
                        -----------------------------------------
Total Dipole Moment    :      0.00000      -0.00002       0.00000
                        -----------------------------------------
Magnitude (a.u.)       :      0.00002
Magnitude (Debye)      :      0.00005

Rotational constants in cm-1:     0.000000     0.000000     0.000000
Rotational constants in MHz :     0.000000     0.000000     0.000000

                             ****ORCA TERMINATED NORMALLY****
TOTAL RUN TIME: 0 days 0 hours 0 minutes 2 seconds 771 msec
