                         Program Version 5.0.4 -  RELEASE  -
|  1> # input to generate an atomic fitting density for Ta
|  2> # this file is used internally by ORCA
|  3> #
|  4> # atomic ground state (S=4): 1s2 2s2 2p6 3s2 3p6 4s2 3d10 4p6 5s2 4d10 5p6 6s2 4f14 5d3
|  5> #
|  6> ! RHF AllowRHF def2-SVP def2/J  NoMulliken NoLoewdin NoMayer NoPrintMOs
|  7>
|  8> %output print[p_atomdensfit] 2 end
|  9>
| 10> %scf
| 11>   guess hcore
| 12>   maxiter 1000
| 13>   maxdisk 500000
| 14>   SCFMode Conventional
| 15>   lshift 0.200000
| 16>   hftyp rohf
| 17>   rohf_case sahf
| 18>   rohf_numop   2
| 19>   rohf_norb[1] 5
| 20>   rohf_nel[1]  3
| 21> end
| 22>
| 23> %basis
| 24>   NewECP 73
| 25>     N_core 60
| 26>     lmax f
| 27>     s 3
| 28>       1      14.5464077000   1345.8806470000  2
| 29>       2       7.2732038000     36.7668062000  2
| 30>       3       2.0178811000    -12.0179609000  2
| 31>     p 3
| 32>       1       9.9355653000    378.4253015000  2
| 33>       2       4.9677824000     22.2930909000  2
| 34>       3       2.0178811000    -12.0179609000  2
| 35>     d 3
| 36>       1       6.3473769000    104.8839557000  2
| 37>       2       3.1736885000      8.7558481000  2
| 38>       3       2.0178811000    -12.0179609000  2
| 39>     f 1
| 40>       1       2.0178811000     12.0179609000  2
| 41>   end
| 42>   NewGTO 73
| 43>     s 4
| 44>      1      24.4736509440      2.2386323911
| 45>      2      18.7213725490     -8.1183993878
| 46>      3      11.5000000000     37.0432560568
| 47>      4      10.3500000000    -30.6331089410
| 48>     s 1
| 49>      1       3.8436180089      1.0000000000
| 50>     s 1
| 51>      1       1.0202266016      1.0000000000
| 52>     s 1
| 53>      1       0.4677478187      1.0000000000
| 54>     s 1
| 55>      1       0.1032318667      1.0000000000
| 56>     s 1
| 57>      1       0.0386744612      1.0000000000
| 58>     p 4
| 59>      1      17.0000000000     -0.0771704057
| 60>      2      12.0081865360      0.2448500499
| 61>      3       5.0278760583     -0.6757474915
| 62>      4       1.1937124184      1.2268252800
| 63>     p 1
| 64>      1       0.5788970705      1.0000000000
| 65>     p 1
| 66>      1       0.2722519880      1.0000000000
| 67>     p 1
| 68>      1       0.0650000000      1.0000000000
| 69>     d 3
| 70>      1       3.9738796278     -0.0943566000
| 71>      2       1.4528884813      0.3316520432
| 72>      3       0.6104290854      0.7677130412
| 73>     d 1
| 74>      1       0.2421627651      1.0000000000
| 75>     d 1
| 76>      1       0.0879093183      1.0000000000
| 77>     f 1
| 78>      1       0.3738600000      1.0000000000
| 79>     p 1
| 80>      1       0.0277011051      1.0000000000
| 81>   end
| 82>   NewAuxGTO 73
| 83>     S 1
| 84>      1 1310.72 1.0
| 85>     S 1
| 86>      1  655.36 1.0
| 87>     S 1
| 88>      1  327.68 1.0
| 89>     S 1
| 90>      1  163.84 1.0
| 91>     S 1
| 92>      1   81.82 1.0
| 93>     S 1
| 94>      1   40.96 1.0
| 95>     S 1
| 96>      1   20.48 1.0
| 97>     S 1
| 98>      1   10.24 1.0
| 99>     S 1
|100>      1    5.12 1.0
|101>     S 1
|102>      1    2.56 1.0
|103>     S 1
|104>      1    1.28 1.0
|105>     S 1
|106>      1    0.64 1.0
|107>     S 1
|108>      1    0.32 1.0
|109>     S 1
|110>      1    0.16 1.0
|111>     S 1
|112>      1    0.08 1.0
|113>     S 1
|114>      1    0.04 1.0
|115>     S 1
|116>      1    0.02 1.0
|117>     S 1
|118>      1    0.01 1.0
|119>   end
|120> end
|121>
|122> * xyz 0 4
|123> 73  0.0 0.0 0.0
|124> *
|125>
|126>
|127>                          ****END OF INPUT****

CARTESIAN COORDINATES (ANGSTROEM)
---------------------------------
  Ta     0.000000    0.000000    0.000000

 Total Charge           Charge          ....    0
 Multiplicity           Mult            ....    4
 Number of Electrons    NEL             ....   13
 Basis Dimension        Dim             ....   43

ORBITAL ENERGIES
----------------

  NO   OCC          E(Eh)            E(eV)
   0   2.0000      -3.228053       -87.8398
   1   2.0000      -1.796630       -48.8888
   2   2.0000      -1.796628       -48.8887
   3   2.0000      -1.789037       -48.6822
   4   2.0000      -0.293104        -7.9758
   5   0.6000      -0.369886       -10.0651
   6   0.6000      -0.357511        -9.7284
   7   0.6000      -0.357504        -9.7282
   8   0.6000      -0.354940        -9.6584
   9   0.6000      -0.181794        -4.9469
  10   0.0000      -0.078278        -2.1301
  11   0.0000      -0.078276        -2.1300
  12   0.0000      -0.146873        -3.9966
  13   0.0000       0.044719         1.2169
  14   0.0000       0.037055         1.0083

FINAL SINGLE POINT ENERGY       -56.207065094700

DIPOLE MOMENT
-------------
                                X             Y             Z
Electronic contribution:     -0.00000      -0.00000      -0.00000
Nuclear contribution   :      0.00000       0.00000       0.00000
                        -----------------------------------------
Total Dipole Moment    :     -0.00000      -0.00000      -0.00000
                        -----------------------------------------
Magnitude (a.u.)       :      0.00000
Magnitude (Debye)      :      0.00000

Rotational constants in cm-1:     0.000000     0.000000     0.000000
Rotational constants in MHz :     0.000000     0.000000     0.000000

                             ****ORCA TERMINATED NORMALLY****
TOTAL RUN TIME: 0 days 0 hours 0 minutes 3 seconds 690 msec
