                         Program Version 5.0.4 -  RELEASE  -
|  1> !B3LYP def2-TZVPD OPT FREQ TightSCF PAL8
|  2>
|  3> %scf
|  4>   MaxIter 300
|  5> end
|  6>
|  7> * xyz -1 1
|  8> Ta         0.27389        0.93013        0.02870
|  9> C          2.48952        0.92813        0.05974
| 10> C          0.27413        3.14227        0.15631
| 11> C         -1.94181        0.93257       -0.00228
| 12> C          0.27335       -1.28214       -0.09889
| 13> O          0.27421        4.26850        0.22072
| 14> O          3.61744        0.92722        0.07540
| 15> O         -3.06965        0.93392       -0.01792
| 16> O          0.27303       -2.40821       -0.16332
| 17> C          0.30585        1.06042       -2.18307
| 18> C          0.24221        0.79935        2.24054
| 19> O          0.32231        1.12721       -3.30901
| 20> O          0.22601        0.73218        3.36636
| 21> **                         ****END OF INPUT****
 Total Charge           Charge          ....   -1
 Multiplicity           Mult            ....    1
 Number of Electrons    NEL             ....   98
FINAL SINGLE POINT ENERGY      -737.117244605658
FINAL SINGLE POINT ENERGY      -737.134909581648
FINAL SINGLE POINT ENERGY      -737.136066667399
FINAL SINGLE POINT ENERGY      -737.136071691172
FINAL SINGLE POINT ENERGY      -737.136076746466
                    ***********************HURRAY********************

CARTESIAN COORDINATES (ANGSTROEM)
---------------------------------
  Ta     0.273878    0.930104    0.028719
  C      2.411627    0.928131    0.058907
  C      0.274239    3.064424    0.152709
  C     -1.863871    0.932329   -0.001461
  C      0.273398   -1.204216   -0.095290
  O      0.274392    4.218549    0.219632
  O      3.567585    0.927153    0.075256
  O     -3.019829    0.933637   -0.017801
  O      0.273097   -2.358339   -0.162237
  C      0.304300    1.054827   -2.105305
  C      0.243596    0.805176    2.162733
  O      0.320966    1.122825   -3.259245
  O      0.227111    0.736951    3.316662

 Multiplicity           Mult            ....    1
 Number of Electrons    NEL             ....   98
 Basis Dimension        Dim             ....  505

ORBITAL ENERGIES
----------------

  NO   OCC          E(Eh)            E(eV)
   0   2.0000     -19.056357      -518.5498
   1   2.0000     -19.056356      -518.5498
   2   2.0000     -19.056351      -518.5497
   3   2.0000     -19.056349      -518.5496
   4   2.0000     -19.056346      -518.5495
   5   2.0000     -19.056346      -518.5495
   6   2.0000     -10.133942      -275.7586
   7   2.0000     -10.133939      -275.7585
   8   2.0000     -10.133933      -275.7583
   9   2.0000     -10.133929      -275.7582
  10   2.0000     -10.133928      -275.7582
  11   2.0000     -10.133923      -275.7581
  12   2.0000      -2.511369       -68.3378
  13   2.0000      -1.262075       -34.3428
  14   2.0000      -1.262069       -34.3426
  15   2.0000      -1.262065       -34.3425
  16   2.0000      -0.984950       -26.8019
  17   2.0000      -0.984410       -26.7872
  18   2.0000      -0.984408       -26.7871
  19   2.0000      -0.984407       -26.7871
  20   2.0000      -0.984349       -26.7855
  21   2.0000      -0.984348       -26.7855
  22   2.0000      -0.444301       -12.0901
  23   2.0000      -0.422093       -11.4857
  24   2.0000      -0.422091       -11.4857
  25   2.0000      -0.418673       -11.3927
  26   2.0000      -0.418671       -11.3926
  27   2.0000      -0.418662       -11.3924
  28   2.0000      -0.341387        -9.2896
  29   2.0000      -0.319461        -8.6930
  30   2.0000      -0.319457        -8.6929
  31   2.0000      -0.319454        -8.6928
  32   2.0000      -0.313889        -8.5414
  33   2.0000      -0.313882        -8.5412
  34   2.0000      -0.313874        -8.5409
  35   2.0000      -0.308578        -8.3968
  36   2.0000      -0.308571        -8.3967
  37   2.0000      -0.308567        -8.3965
  38   2.0000      -0.304380        -8.2826
  39   2.0000      -0.304378        -8.2826
  40   2.0000      -0.304378        -8.2825
  41   2.0000      -0.298612        -8.1256
  42   2.0000      -0.298606        -8.1255
  43   2.0000      -0.250743        -6.8231
  44   2.0000      -0.250732        -6.8228
  45   2.0000      -0.250710        -6.8222
  46   2.0000      -0.054401        -1.4803
  47   2.0000      -0.054380        -1.4797
  48   2.0000      -0.054378        -1.4797
  49   0.0000       0.082173         2.2361
  50   0.0000       0.082185         2.2364
  51   0.0000       0.082198         2.2367
  52   0.0000       0.105870         2.8809
  53   0.0000       0.105892         2.8815

MULLIKEN ATOMIC CHARGES
-----------------------
   0 Ta:    1.608435
   1 C :   -0.027523
   2 C :   -0.028266
   3 C :   -0.027797
   4 C :   -0.028292
   5 O :   -0.406752
   6 O :   -0.406493
   7 O :   -0.406467
   8 O :   -0.406796
   9 C :   -0.028162
  10 C :   -0.028141
  11 O :   -0.406797
  12 O :   -0.406949
Sum of atomic charges:   -1.0000000

LOEWDIN ATOMIC CHARGES
----------------------
   0 Ta:    0.530477
   1 C :   -0.269726
   2 C :   -0.269745
   3 C :   -0.269725
   4 C :   -0.269743
   5 O :    0.014667
   6 O :    0.014664
   7 O :    0.014664
   8 O :    0.014667
   9 C :   -0.269767
  10 C :   -0.269766
  11 O :    0.014666
  12 O :    0.014667

  Mayer bond orders larger than 0.100000
B(  0-Ta,  1-C ) :   0.6305 B(  0-Ta,  2-C ) :   0.6297 B(  0-Ta,  3-C ) :   0.6305
B(  0-Ta,  4-C ) :   0.6296 B(  0-Ta,  9-C ) :   0.6298 B(  0-Ta, 10-C ) :   0.6298
B(  1-C ,  6-O ) :   1.9972 B(  2-C ,  4-C ) :   0.1001 B(  2-C ,  5-O ) :   1.9976
B(  3-C ,  7-O ) :   1.9974 B(  4-C ,  8-O ) :   1.9975 B(  9-C , 10-C ) :   0.1003
B(  9-C , 11-O ) :   1.9977 B( 10-C , 12-O ) :   1.9976

FINAL SINGLE POINT ENERGY      -737.136076776176

DIPOLE MOMENT
-------------
                                X             Y             Z
Electronic contribution:     -0.00046      -0.00126       0.00040
Nuclear contribution   :      0.00044       0.00122      -0.00038
                        -----------------------------------------
Total Dipole Moment    :     -0.00002      -0.00004       0.00002
                        -----------------------------------------
Magnitude (a.u.)       :      0.00005
Magnitude (Debye)      :      0.00013

VIBRATIONAL FREQUENCIES
-----------------------

Scaling factor for frequencies =  1.000000000  (already applied!)

   0:         0.00 cm**-1
   1:         0.00 cm**-1
   2:         0.00 cm**-1
   3:         0.00 cm**-1
   4:         0.00 cm**-1
   5:         0.00 cm**-1
   6:        39.97 cm**-1
   7:        40.28 cm**-1
   8:        40.37 cm**-1
   9:        64.20 cm**-1
  10:        64.31 cm**-1
  11:        64.39 cm**-1
  12:        70.69 cm**-1
  13:        70.77 cm**-1
  14:        70.89 cm**-1
  15:       355.81 cm**-1
  16:       355.87 cm**-1
  17:       356.13 cm**-1
  18:       368.44 cm**-1
  19:       368.50 cm**-1
  20:       368.54 cm**-1
  21:       385.63 cm**-1
  22:       385.70 cm**-1
  23:       397.43 cm**-1
  24:       453.15 cm**-1
  25:       453.18 cm**-1
  26:       453.20 cm**-1
  27:       505.59 cm**-1
  28:       505.67 cm**-1
  29:       505.69 cm**-1
  30:       564.90 cm**-1
  31:       565.01 cm**-1
  32:       565.02 cm**-1
  33:      1932.75 cm**-1
  34:      1932.82 cm**-1
  35:      1932.86 cm**-1
  36:      1954.06 cm**-1
  37:      1954.14 cm**-1
  38:      2075.54 cm**-1

IR SPECTRUM
-----------

 Mode   freq       eps      Int      T**2         TX        TY        TZ
       cm**-1   L/(mol*cm) km/mol    a.u.
----------------------------------------------------------------------------
  6:     39.97   0.000000    0.00  0.000000  ( 0.000035 -0.000022  0.000076)
  7:     40.28   0.000000    0.00  0.000000  ( 0.000007 -0.000160  0.000074)
  8:     40.37   0.000000    0.00  0.000000  ( 0.000016 -0.000042  0.000022)
  9:     64.20   0.000322    1.63  0.001564  (-0.039407 -0.000586  0.003310)
 10:     64.31   0.000323    1.63  0.001566  ( 0.000003 -0.038958 -0.006963)
 11:     64.39   0.000323    1.63  0.001566  ( 0.003354 -0.006976  0.038811)
 12:     70.69   0.000000    0.00  0.000000  ( 0.000012  0.000002 -0.000000)
 13:     70.77   0.000000    0.00  0.000000  (-0.000007 -0.000001  0.000007)
 14:     70.89   0.000000    0.00  0.000000  ( 0.000000 -0.000007  0.000004)
 15:    355.81   0.000000    0.00  0.000000  ( 0.000001  0.000002  0.000000)
 16:    355.87   0.000000    0.00  0.000000  ( 0.000001 -0.000000 -0.000000)
 17:    356.13   0.000000    0.00  0.000000  (-0.000000  0.000001  0.000006)
 18:    368.44   0.006857   34.65  0.005807  ( 0.076095  0.000466  0.004091)
 19:    368.50   0.006847   34.60  0.005799  (-0.001499  0.073595  0.019501)
 20:    368.54   0.006852   34.63  0.005802  ( 0.003852  0.019634 -0.073496)
 21:    385.63   0.000000    0.00  0.000000  ( 0.000003  0.000017  0.000002)
 22:    385.70   0.000000    0.00  0.000000  ( 0.000014 -0.000017 -0.000002)
 23:    397.43   0.000000    0.00  0.000000  (-0.000001 -0.000004  0.000001)
 24:    453.15   0.000000    0.00  0.000000  ( 0.000016 -0.000005 -0.000002)
 25:    453.18   0.000000    0.00  0.000000  ( 0.000004 -0.000003  0.000002)
 26:    453.20   0.000000    0.00  0.000000  (-0.000000 -0.000000 -0.000012)
 27:    505.59   0.000000    0.00  0.000000  ( 0.000019 -0.000022 -0.000000)
 28:    505.67   0.000000    0.00  0.000000  ( 0.000005 -0.000066  0.000069)
 29:    505.69   0.000000    0.00  0.000000  ( 0.000014 -0.000061  0.000045)
 30:    564.90   0.009027   45.62  0.004987  (-0.070525 -0.003456 -0.000909)
 31:    565.01   0.009028   45.62  0.004986  (-0.003572  0.069161  0.013787)
 32:    565.02   0.009020   45.58  0.004982  ( 0.000175  0.013705 -0.069238)
 33:   1932.75   0.631829  3193.01  0.102016  (-0.319217  0.002335 -0.010529)
 34:   1932.82   0.631536  3191.52  0.101964  (-0.003768  0.268046  0.173497)
 35:   1932.86   0.632099  3194.37  0.102054  ( 0.010131  0.173670 -0.267936)
 36:   1954.06   0.000000    0.00  0.000000  ( 0.000009 -0.000071  0.000001)
 37:   1954.14   0.000000    0.00  0.000000  (-0.000039  0.000013 -0.000014)
 38:   2075.54   0.000000    0.00  0.000000  ( 0.000000 -0.000000 -0.000001)

--------------------------
THERMOCHEMISTRY AT 298.15K
--------------------------

Temperature         ... 298.15 K
Pressure            ... 1.00 atm
Total Mass          ... 349.01 AMU

Throughout the following assumptions are being made:
  (1) The electronic state is orbitally nondegenerate
  (2) There are no thermally accessible electronically excited states
  (3) Hindered rotations indicated by low frequency modes are not
      treated as such but are treated as vibrations and this may
      cause some error
  (4) All equations used are the standard statistical mechanics
      equations for an ideal gas
  (5) All vibrations are strictly harmonic

freq.      39.97  E(vib)   ...       0.54
freq.      40.28  E(vib)   ...       0.54
freq.      40.37  E(vib)   ...       0.54
freq.      64.20  E(vib)   ...       0.51
freq.      64.31  E(vib)   ...       0.51
freq.      64.39  E(vib)   ...       0.51
freq.      70.69  E(vib)   ...       0.50
freq.      70.77  E(vib)   ...       0.50
freq.      70.89  E(vib)   ...       0.50
freq.     355.81  E(vib)   ...       0.22
freq.     355.87  E(vib)   ...       0.22
freq.     356.13  E(vib)   ...       0.22
freq.     368.44  E(vib)   ...       0.21
freq.     368.50  E(vib)   ...       0.21
freq.     368.54  E(vib)   ...       0.21
freq.     385.63  E(vib)   ...       0.20
freq.     385.70  E(vib)   ...       0.20
freq.     397.43  E(vib)   ...       0.20
freq.     453.15  E(vib)   ...       0.16
freq.     453.18  E(vib)   ...       0.16
freq.     453.20  E(vib)   ...       0.16
freq.     505.59  E(vib)   ...       0.14
freq.     505.67  E(vib)   ...       0.14
freq.     505.69  E(vib)   ...       0.14
freq.     564.90  E(vib)   ...       0.11
freq.     565.01  E(vib)   ...       0.11
freq.     565.02  E(vib)   ...       0.11
freq.    1932.75  E(vib)   ...       0.00
freq.    1932.82  E(vib)   ...       0.00
freq.    1932.86  E(vib)   ...       0.00
freq.    1954.06  E(vib)   ...       0.00
freq.    1954.14  E(vib)   ...       0.00
freq.    2075.54  E(vib)   ...       0.00

------------
INNER ENERGY
------------

The inner energy is: U= E(el) + E(ZPE) + E(vib) + E(rot) + E(trans)
    E(el)   - is the total energy from the electronic structure calculation
              = E(kin-el) + E(nuc-el) + E(el-el) + E(nuc-nuc)
    E(ZPE)  - the the zero temperature vibrational energy from the frequency calculation
    E(vib)  - the the finite temperature correction to E(ZPE) due to population
              of excited vibrational states
    E(rot)  - is the rotational thermal energy
    E(trans)- is the translational thermal energy

Summary of contributions to the inner energy U:
Electronic energy                ...   -737.13607678 Eh
Zero point energy                ...      0.04606792 Eh      28.91 kcal/mol
Thermal vibrational correction   ...      0.01239478 Eh       7.78 kcal/mol
Thermal rotational correction    ...      0.00141627 Eh       0.89 kcal/mol
Thermal translational correction ...      0.00141627 Eh       0.89 kcal/mol
-----------------------------------------------------------------------
Total thermal energy                   -737.07478153 Eh

Summary of corrections to the electronic energy:
(perhaps to be used in another calculation)
Total thermal correction                  0.01522732 Eh       9.56 kcal/mol
Non-thermal (ZPE) correction              0.04606792 Eh      28.91 kcal/mol
-----------------------------------------------------------------------
Total correction                          0.06129524 Eh      38.46 kcal/mol

--------
ENTHALPY
--------

The enthalpy is H = U + kB*T
                kB is Boltzmann's constant
Total free energy                 ...   -737.07478153 Eh
Thermal Enthalpy correction       ...      0.00094421 Eh       0.59 kcal/mol
-----------------------------------------------------------------------
Total Enthalpy                    ...   -737.07383732 Eh

Note: Only C1 symmetry has been detected, increase convergence thresholds
      if your molecule has a higher symmetry. Symmetry factor of 1.0 is
      used for the rotational entropy correction.

Note: Rotational entropy computed according to Herzberg
Infrared and Raman Spectra, Chapter V,1, Van Nostrand Reinhold, 1945
Point Group:  C1, Symmetry Number:   1
Rotational constants in cm-1:     0.018449     0.018445     0.018439

Vibrational entropy computed according to the QRRHO of S. Grimme
Chem.Eur.J. 2012 18 9955

-------
ENTROPY
-------

The entropy contributions are T*S = T*(S(el)+S(vib)+S(rot)+S(trans))
     S(el)   - electronic entropy
     S(vib)  - vibrational entropy
     S(rot)  - rotational entropy
     S(trans)- translational entropy
The entropies will be listed as multiplied by the temperature to get
units of energy

Electronic entropy                ...      0.00000000 Eh      0.00 kcal/mol
Vibrational entropy               ...      0.02254135 Eh     14.14 kcal/mol
Rotational entropy                ...      0.01516598 Eh      9.52 kcal/mol
Translational entropy             ...      0.02064147 Eh     12.95 kcal/mol
-----------------------------------------------------------------------
Final entropy term                ...      0.05834880 Eh     36.61 kcal/mol

In case the symmetry of your molecule has not been determined correctly
or in case you have a reason to use a different symmetry number we print
out the resulting rotational entropy values for sn=1,12 :
 --------------------------------------------------------
|  sn= 1 | S(rot)=       0.01516598 Eh      9.52 kcal/mol|
|  sn= 2 | S(rot)=       0.01451152 Eh      9.11 kcal/mol|
|  sn= 3 | S(rot)=       0.01412869 Eh      8.87 kcal/mol|
|  sn= 4 | S(rot)=       0.01385707 Eh      8.70 kcal/mol|
|  sn= 5 | S(rot)=       0.01364638 Eh      8.56 kcal/mol|
|  sn= 6 | S(rot)=       0.01347423 Eh      8.46 kcal/mol|
|  sn= 7 | S(rot)=       0.01332869 Eh      8.36 kcal/mol|
|  sn= 8 | S(rot)=       0.01320261 Eh      8.28 kcal/mol|
|  sn= 9 | S(rot)=       0.01309140 Eh      8.21 kcal/mol|
|  sn=10 | S(rot)=       0.01299192 Eh      8.15 kcal/mol|
|  sn=11 | S(rot)=       0.01290193 Eh      8.10 kcal/mol|
|  sn=12 | S(rot)=       0.01281978 Eh      8.04 kcal/mol|
 --------------------------------------------------------

-------------------
GIBBS FREE ENERGY
-------------------

The Gibbs free energy is G = H - T*S

Total enthalpy                    ...   -737.07383732 Eh
Total entropy correction          ...     -0.05834880 Eh    -36.61 kcal/mol
-----------------------------------------------------------------------
Final Gibbs free energy         ...   -737.13218613 Eh

For completeness - the Gibbs free energy minus the electronic energy
G-E(el)                           ...      0.00389065 Eh      2.44 kcal/mol

                             ****ORCA TERMINATED NORMALLY****
TOTAL RUN TIME: 0 days 0 hours 35 minutes 42 seconds 575 msec
