                         Program Version 5.0.4 -  RELEASE  -
|  1> !B3LYP def2-TZVPD OPT FREQ TightSCF PAL8
|  2>
|  3> %scf
|  4>   MaxIter 300
|  5> end
|  6>
|  7> * xyz 0 2
|  8> Ta         0.27389        0.93013        0.02870
|  9> C          2.48952        0.92813        0.05974
| 10> C          0.27413        3.14227        0.15631
| 11> C         -1.94181        0.93257       -0.00228
| 12> C          0.27335       -1.28214       -0.09889
| 13> O          0.27421        4.26850        0.22072
| 14> O          3.61744        0.92722        0.07540
| 15> O         -3.06965        0.93392       -0.01792
| 16> O          0.27303       -2.40821       -0.16332
| 17> C          0.30585        1.06042       -2.18307
| 18> C          0.24221        0.79935        2.24054
| 19> O          0.32231        1.12721       -3.30901
| 20> O          0.22601        0.73218        3.36636
| 21> **                         ****END OF INPUT****
 Total Charge           Charge          ....    0
 Multiplicity           Mult            ....    2
 Number of Electrons    NEL             ....   97
FINAL SINGLE POINT ENERGY      -737.019263217561
FINAL SINGLE POINT ENERGY      -737.024922679655
FINAL SINGLE POINT ENERGY      -737.026273780167
FINAL SINGLE POINT ENERGY      -737.026820959120
FINAL SINGLE POINT ENERGY      -737.027075695800
FINAL SINGLE POINT ENERGY      -737.027090826190
FINAL SINGLE POINT ENERGY      -737.027110145467
FINAL SINGLE POINT ENERGY      -737.027117742206
FINAL SINGLE POINT ENERGY      -737.027121751909
                    ***********************HURRAY********************

CARTESIAN COORDINATES (ANGSTROEM)
---------------------------------
  Ta     0.273882    0.930098    0.028713
  C      2.441159    0.844511   -0.035209
  C      0.187053    3.097943    0.056221
  C     -1.893388    1.015764    0.092667
  C      0.360671   -1.237750    0.001173
  O      0.137003    4.237502    0.055829
  O      3.579748    0.795549   -0.081019
  O     -3.031971    1.064865    0.138514
  O      0.410660   -2.377313    0.001534
  C      0.396848    1.153413   -2.124823
  C      0.150956    0.706778    2.182249
  O      0.466589    1.285102   -3.255716
  O      0.081280    0.575088    3.313147

 Multiplicity           Mult            ....    2
 Number of Electrons    NEL             ....   97
 Basis Dimension        Dim             ....  505

ORBITAL ENERGIES
----------------
                 SPIN UP ORBITALS
  NO   OCC          E(Eh)            E(eV)
   0   1.0000     -19.228131      -523.2240
   1   1.0000     -19.228130      -523.2240
   2   1.0000     -19.227846      -523.2163
   3   1.0000     -19.227845      -523.2163
   4   1.0000     -19.227632      -523.2105
   5   1.0000     -19.227632      -523.2105
   6   1.0000     -10.302225      -280.3378
   7   1.0000     -10.302221      -280.3377
   8   1.0000     -10.302032      -280.3326
   9   1.0000     -10.302028      -280.3324
  10   1.0000     -10.301827      -280.3270
  11   1.0000     -10.301823      -280.3268
  12   1.0000      -2.706688       -73.6527
  13   1.0000      -1.464668       -39.8556
  14   1.0000      -1.453274       -39.5456
  15   1.0000      -1.453144       -39.5420
  16   1.0000      -1.160049       -31.5665
  17   1.0000      -1.159753       -31.5585
  18   1.0000      -1.159480       -31.5510
  19   1.0000      -1.159449       -31.5502
  20   1.0000      -1.159214       -31.5438
  21   1.0000      -1.159185       -31.5430
  22   1.0000      -0.609893       -16.5960
  23   1.0000      -0.584581       -15.9073
  24   1.0000      -0.584306       -15.8998
  25   1.0000      -0.581766       -15.8307
  26   1.0000      -0.581656       -15.8277
  27   1.0000      -0.578823       -15.7506
  28   1.0000      -0.511572       -13.9206
  29   1.0000      -0.489064       -13.3081
  30   1.0000      -0.489018       -13.3069
  31   1.0000      -0.488832       -13.3018
  32   1.0000      -0.484650       -13.1880
  33   1.0000      -0.484567       -13.1857
  34   1.0000      -0.483332       -13.1521
  35   1.0000      -0.478426       -13.0186
  36   1.0000      -0.476932       -12.9780
  37   1.0000      -0.476748       -12.9730
  38   1.0000      -0.476744       -12.9729
  39   1.0000      -0.476607       -12.9691
  40   1.0000      -0.472227       -12.8499
  41   1.0000      -0.468302       -12.7431
  42   1.0000      -0.468057       -12.7365
  43   1.0000      -0.430104       -11.7037
  44   1.0000      -0.429985       -11.7005
  45   1.0000      -0.417349       -11.3566
  46   1.0000      -0.232000        -6.3130
  47   1.0000      -0.227732        -6.1969
  48   1.0000      -0.227440        -6.1890
  49   0.0000      -0.082238        -2.2378
  50   0.0000      -0.082003        -2.2314
  51   0.0000      -0.081220        -2.2101
  52   0.0000      -0.063864        -1.7378
  53   0.0000      -0.050319        -1.3692

                 SPIN DOWN ORBITALS
  NO   OCC          E(Eh)            E(eV)
   0   1.0000     -19.226927      -523.1913
   1   1.0000     -19.226926      -523.1913
   2   1.0000     -19.226666      -523.1842
   3   1.0000     -19.226665      -523.1842
   4   1.0000     -19.226459      -523.1786
   5   1.0000     -19.226459      -523.1785
   6   1.0000     -10.302221      -280.3377
   7   1.0000     -10.302217      -280.3376
   8   1.0000     -10.302032      -280.3326
   9   1.0000     -10.302028      -280.3324
  10   1.0000     -10.301828      -280.3270
  11   1.0000     -10.301825      -280.3269
  12   1.0000      -2.697534       -73.4036
  13   1.0000      -1.445056       -39.3220
  14   1.0000      -1.444970       -39.3196
  15   1.0000      -1.442882       -39.2628
  16   1.0000      -1.158133       -31.5144
  17   1.0000      -1.157826       -31.5061
  18   1.0000      -1.157578       -31.4993
  19   1.0000      -1.157561       -31.4988
  20   1.0000      -1.157333       -31.4926
  21   1.0000      -1.157301       -31.4918
  22   1.0000      -0.606289       -16.4980
  23   1.0000      -0.582454       -15.8494
  24   1.0000      -0.582209       -15.8427
  25   1.0000      -0.579793       -15.7770
  26   1.0000      -0.579717       -15.7749
  27   1.0000      -0.576706       -15.6930
  28   1.0000      -0.508444       -13.8355
  29   1.0000      -0.487048       -13.2532
  30   1.0000      -0.486952       -13.2506
  31   1.0000      -0.481925       -13.1139
  32   1.0000      -0.481596       -13.1049
  33   1.0000      -0.481310       -13.0971
  34   1.0000      -0.477942       -13.0055
  35   1.0000      -0.477211       -12.9856
  36   1.0000      -0.473124       -12.8743
  37   1.0000      -0.473088       -12.8734
  38   1.0000      -0.472317       -12.8524
  39   1.0000      -0.472253       -12.8507
  40   1.0000      -0.471734       -12.8365
  41   1.0000      -0.465242       -12.6599
  42   1.0000      -0.464984       -12.6529
  43   1.0000      -0.427864       -11.6428
  44   1.0000      -0.427696       -11.6382
  45   1.0000      -0.413453       -11.2506
  46   1.0000      -0.221931        -6.0391
  47   1.0000      -0.221672        -6.0320
  48   0.0000      -0.163007        -4.4357
  49   0.0000      -0.078139        -2.1263
  50   0.0000      -0.077689        -2.1140
  51   0.0000      -0.069805        -1.8995
  52   0.0000      -0.063703        -1.7335

MULLIKEN ATOMIC CHARGES AND SPIN POPULATIONS
--------------------------------------------
   0 Ta:    1.196899    0.803606
   1 C :    0.069641   -0.006655
   2 C :    0.069768   -0.005754
   3 C :    0.069813   -0.006652
   4 C :    0.069801   -0.005765
   5 O :   -0.270322    0.038454
   6 O :   -0.269553    0.039270
   7 O :   -0.269677    0.039265
   8 O :   -0.270373    0.038459
   9 C :    0.072582   -0.005346
  10 C :    0.072629   -0.005350
  11 O :   -0.270607    0.038234
  12 O :   -0.270602    0.038235
Sum of atomic charges         :   -0.0000000

LOEWDIN ATOMIC CHARGES AND SPIN POPULATIONS
-------------------------------------------
   0 Ta:    0.671242    0.493156
   1 C :   -0.213238    0.048204
   2 C :   -0.213919    0.047258
   3 C :   -0.213241    0.048200
   4 C :   -0.213916    0.047262
   5 O :    0.102071    0.036826
   6 O :    0.102387    0.037603
   7 O :    0.102385    0.037599
   8 O :    0.102068    0.036830
   9 C :   -0.214859    0.046931
  10 C :   -0.214860    0.046932
  11 O :    0.101940    0.036598
  12 O :    0.101938    0.036599

  Mayer bond orders larger than 0.100000
B(  0-Ta,  1-C ) :   0.6337 B(  0-Ta,  2-C ) :   0.6369 B(  0-Ta,  3-C ) :   0.6338
B(  0-Ta,  4-C ) :   0.6367 B(  0-Ta,  9-C ) :   0.6385 B(  0-Ta, 10-C ) :   0.6385
B(  1-C ,  6-O ) :   2.1576 B(  2-C ,  5-O ) :   2.1571 B(  3-C ,  7-O ) :   2.1573
B(  4-C ,  8-O ) :   2.1569 B(  9-C , 11-O ) :   2.1569 B( 10-C , 12-O ) :   2.1569

FINAL SINGLE POINT ENERGY      -737.027123891232

DIPOLE MOMENT
-------------
                                X             Y             Z
Electronic contribution:     -0.00014      -0.00179      -0.00011
Nuclear contribution   :      0.00016       0.00176       0.00009
                        -----------------------------------------
Total Dipole Moment    :      0.00002      -0.00002      -0.00002
                        -----------------------------------------
Magnitude (a.u.)       :      0.00003
Magnitude (Debye)      :      0.00009

VIBRATIONAL FREQUENCIES
-----------------------

Scaling factor for frequencies =  1.000000000  (already applied!)

   0:         0.00 cm**-1
   1:         0.00 cm**-1
   2:         0.00 cm**-1
   3:         0.00 cm**-1
   4:         0.00 cm**-1
   5:         0.00 cm**-1
   6:        41.67 cm**-1
   7:        42.27 cm**-1
   8:        58.68 cm**-1
   9:        59.68 cm**-1
  10:        68.45 cm**-1
  11:        68.91 cm**-1
  12:        70.50 cm**-1
  13:        71.18 cm**-1
  14:        71.58 cm**-1
  15:       326.84 cm**-1
  16:       328.06 cm**-1
  17:       332.93 cm**-1
  18:       333.77 cm**-1
  19:       335.80 cm**-1
  20:       338.31 cm**-1
  21:       339.17 cm**-1
  22:       344.19 cm**-1
  23:       377.94 cm**-1
  24:       409.74 cm**-1
  25:       427.17 cm**-1
  26:       427.56 cm**-1
  27:       441.40 cm**-1
  28:       442.64 cm**-1
  29:       467.32 cm**-1
  30:       504.75 cm**-1
  31:       541.64 cm**-1
  32:       542.16 cm**-1
  33:      2033.57 cm**-1
  34:      2033.68 cm**-1
  35:      2040.24 cm**-1
  36:      2040.38 cm**-1
  37:      2040.98 cm**-1
  38:      2159.13 cm**-1

IR SPECTRUM
-----------

 Mode   freq       eps      Int      T**2         TX        TY        TZ
       cm**-1   L/(mol*cm) km/mol    a.u.
----------------------------------------------------------------------------
  6:     41.67   0.000056    0.28  0.000420  (-0.016762  0.008791  0.007866)
  7:     42.27   0.000056    0.28  0.000415  (-0.001541 -0.014797  0.013915)
  8:     58.68   0.000000    0.00  0.000002  (-0.001081 -0.000676 -0.000386)
  9:     59.68   0.000173    0.87  0.000904  (-0.016863 -0.016431 -0.018704)
 10:     68.45   0.000000    0.00  0.000000  ( 0.000010 -0.000015  0.000008)
 11:     68.91   0.000000    0.00  0.000000  (-0.000010 -0.000007  0.000020)
 12:     70.50   0.000000    0.00  0.000000  (-0.000028 -0.000008  0.000031)
 13:     71.18   0.000262    1.32  0.001149  (-0.027658  0.016609  0.010398)
 14:     71.58   0.000261    1.32  0.001137  (-0.004495 -0.022953  0.024280)
 15:    326.84   0.000000    0.00  0.000000  (-0.000015  0.000005  0.000002)
 16:    328.06   0.000000    0.00  0.000000  ( 0.000000  0.000007 -0.000000)
 17:    332.93   0.010675   53.95  0.010006  ( 0.074712 -0.065981 -0.008382)
 18:    333.77   0.010670   53.92  0.009976  ( 0.046220  0.061362 -0.063828)
 19:    335.80   0.007554   38.17  0.007020  (-0.036392 -0.032193 -0.068258)
 20:    338.31   0.000000    0.00  0.000000  ( 0.000014 -0.000019 -0.000009)
 21:    339.17   0.000000    0.00  0.000000  ( 0.000019  0.000003  0.000018)
 22:    344.19   0.000000    0.00  0.000000  ( 0.000008 -0.000002  0.000004)
 23:    377.94   0.000000    0.00  0.000000  ( 0.000000 -0.000003 -0.000001)
 24:    409.74   0.000000    0.00  0.000000  ( 0.000006 -0.000004  0.000000)
 25:    427.17   0.000000    0.00  0.000000  (-0.000003  0.000001 -0.000002)
 26:    427.56   0.000000    0.00  0.000000  (-0.000004  0.000004  0.000002)
 27:    441.40   0.000080    0.40  0.000057  (-0.004902  0.004429  0.003593)
 28:    442.64   0.000064    0.33  0.000045  ( 0.000342  0.004045 -0.005376)
 29:    467.32   0.007719   39.01  0.005155  ( 0.041081  0.038922  0.044182)
 30:    504.75   0.000008    0.04  0.000005  ( 0.000931 -0.001737  0.001147)
 31:    541.64   0.009247   46.73  0.005328  ( 0.059103 -0.031864 -0.028621)
 32:    542.16   0.008786   44.40  0.005057  (-0.003290 -0.051333  0.049106)
 33:   2033.57   0.000000    0.00  0.000000  ( 0.000094 -0.000041  0.000100)
 34:   2033.68   0.000000    0.00  0.000000  ( 0.000049 -0.000125 -0.000098)
 35:   2040.24   0.468223  2366.21  0.071617  (-0.095566  0.230095  0.097674)
 36:   2040.38   0.497869  2516.03  0.076146  ( 0.024359  0.126492 -0.244033)
 37:   2040.98   0.433537  2190.92  0.066287  ( 0.248437  0.056172  0.037566)
 38:   2159.13   0.000000    0.00  0.000000  (-0.000004 -0.000009  0.000005)

--------------------------
THERMOCHEMISTRY AT 298.15K
--------------------------

Temperature         ... 298.15 K
Pressure            ... 1.00 atm
Total Mass          ... 349.01 AMU

Throughout the following assumptions are being made:
  (1) The electronic state is orbitally nondegenerate
      but the spin degeneracy is treated
  (2) There are no thermally accessible electronically excited states
  (3) Hindered rotations indicated by low frequency modes are not
      treated as such but are treated as vibrations and this may
      cause some error
  (4) All equations used are the standard statistical mechanics
      equations for an ideal gas
  (5) All vibrations are strictly harmonic

freq.      41.67  E(vib)   ...       0.53
freq.      42.27  E(vib)   ...       0.53
freq.      58.68  E(vib)   ...       0.51
freq.      59.68  E(vib)   ...       0.51
freq.      68.45  E(vib)   ...       0.50
freq.      68.91  E(vib)   ...       0.50
freq.      70.50  E(vib)   ...       0.50
freq.      71.18  E(vib)   ...       0.50
freq.      71.58  E(vib)   ...       0.50
freq.     326.84  E(vib)   ...       0.24
freq.     328.06  E(vib)   ...       0.24
freq.     332.93  E(vib)   ...       0.24
freq.     333.77  E(vib)   ...       0.24
freq.     335.80  E(vib)   ...       0.24
freq.     338.31  E(vib)   ...       0.23
freq.     339.17  E(vib)   ...       0.23
freq.     344.19  E(vib)   ...       0.23
freq.     377.94  E(vib)   ...       0.21
freq.     409.74  E(vib)   ...       0.19
freq.     427.17  E(vib)   ...       0.18
freq.     427.56  E(vib)   ...       0.18
freq.     441.40  E(vib)   ...       0.17
freq.     442.64  E(vib)   ...       0.17
freq.     467.32  E(vib)   ...       0.16
freq.     504.75  E(vib)   ...       0.14
freq.     541.64  E(vib)   ...       0.12
freq.     542.16  E(vib)   ...       0.12
freq.    2033.57  E(vib)   ...       0.00
freq.    2033.68  E(vib)   ...       0.00
freq.    2040.24  E(vib)   ...       0.00
freq.    2040.38  E(vib)   ...       0.00
freq.    2040.98  E(vib)   ...       0.00
freq.    2159.13  E(vib)   ...       0.00

------------
INNER ENERGY
------------

The inner energy is: U= E(el) + E(ZPE) + E(vib) + E(rot) + E(trans)
    E(el)   - is the total energy from the electronic structure calculation
              = E(kin-el) + E(nuc-el) + E(el-el) + E(nuc-nuc)
    E(ZPE)  - the the zero temperature vibrational energy from the frequency calculation
    E(vib)  - the the finite temperature correction to E(ZPE) due to population
              of excited vibrational states
    E(rot)  - is the rotational thermal energy
    E(trans)- is the translational thermal energy

Summary of contributions to the inner energy U:
Electronic energy                ...   -737.02712389 Eh
Zero point energy                ...      0.04593296 Eh      28.82 kcal/mol
Thermal vibrational correction   ...      0.01293262 Eh       8.12 kcal/mol
Thermal rotational correction    ...      0.00141627 Eh       0.89 kcal/mol
Thermal translational correction ...      0.00141627 Eh       0.89 kcal/mol
-----------------------------------------------------------------------
Total thermal energy                   -736.96542576 Eh

Summary of corrections to the electronic energy:
(perhaps to be used in another calculation)
Total thermal correction                  0.01576516 Eh       9.89 kcal/mol
Non-thermal (ZPE) correction              0.04593296 Eh      28.82 kcal/mol
-----------------------------------------------------------------------
Total correction                          0.06169813 Eh      38.72 kcal/mol

--------
ENTHALPY
--------

The enthalpy is H = U + kB*T
                kB is Boltzmann's constant
Total free energy                 ...   -736.96542576 Eh
Thermal Enthalpy correction       ...      0.00094421 Eh       0.59 kcal/mol
-----------------------------------------------------------------------
Total Enthalpy                    ...   -736.96448156 Eh

Note: Only C1 symmetry has been detected, increase convergence thresholds
      if your molecule has a higher symmetry. Symmetry factor of 1.0 is
      used for the rotational entropy correction.

Note: Rotational entropy computed according to Herzberg
Infrared and Raman Spectra, Chapter V,1, Van Nostrand Reinhold, 1945
Point Group:  C1, Symmetry Number:   1
Rotational constants in cm-1:     0.019084     0.018937     0.016721

Vibrational entropy computed according to the QRRHO of S. Grimme
Chem.Eur.J. 2012 18 9955

-------
ENTROPY
-------

The entropy contributions are T*S = T*(S(el)+S(vib)+S(rot)+S(trans))
     S(el)   - electronic entropy
     S(vib)  - vibrational entropy
     S(rot)  - rotational entropy
     S(trans)- translational entropy
The entropies will be listed as multiplied by the temperature to get
units of energy

Electronic entropy                ...      0.00065446 Eh      0.41 kcal/mol
Vibrational entropy               ...      0.02341464 Eh     14.69 kcal/mol
Rotational entropy                ...      0.01518377 Eh      9.53 kcal/mol
Translational entropy             ...      0.02064147 Eh     12.95 kcal/mol
-----------------------------------------------------------------------
Final entropy term                ...      0.05989435 Eh     37.58 kcal/mol

In case the symmetry of your molecule has not been determined correctly
or in case you have a reason to use a different symmetry number we print
out the resulting rotational entropy values for sn=1,12 :
 --------------------------------------------------------
|  sn= 1 | S(rot)=       0.01518377 Eh      9.53 kcal/mol|
|  sn= 2 | S(rot)=       0.01452931 Eh      9.12 kcal/mol|
|  sn= 3 | S(rot)=       0.01414648 Eh      8.88 kcal/mol|
|  sn= 4 | S(rot)=       0.01387486 Eh      8.71 kcal/mol|
|  sn= 5 | S(rot)=       0.01366417 Eh      8.57 kcal/mol|
|  sn= 6 | S(rot)=       0.01349203 Eh      8.47 kcal/mol|
|  sn= 7 | S(rot)=       0.01334648 Eh      8.38 kcal/mol|
|  sn= 8 | S(rot)=       0.01322040 Eh      8.30 kcal/mol|
|  sn= 9 | S(rot)=       0.01310919 Eh      8.23 kcal/mol|
|  sn=10 | S(rot)=       0.01300971 Eh      8.16 kcal/mol|
|  sn=11 | S(rot)=       0.01291972 Eh      8.11 kcal/mol|
|  sn=12 | S(rot)=       0.01283757 Eh      8.06 kcal/mol|
 --------------------------------------------------------

-------------------
GIBBS FREE ENERGY
-------------------

The Gibbs free energy is G = H - T*S

Total enthalpy                    ...   -736.96448156 Eh
Total entropy correction          ...     -0.05989435 Eh    -37.58 kcal/mol
-----------------------------------------------------------------------
Final Gibbs free energy         ...   -737.02437590 Eh

For completeness - the Gibbs free energy minus the electronic energy
G-E(el)                           ...      0.00274799 Eh      1.72 kcal/mol

                             ****ORCA TERMINATED NORMALLY****
TOTAL RUN TIME: 0 days 1 hours 7 minutes 1 seconds 523 msec
