                         Program Version 5.0.4 -  RELEASE  -
|  1> !B3LYP def2-TZVPD OPT FREQ TightSCF PAL8
|  2>
|  3> %scf
|  4>   MaxIter 300
|  5> end
|  6>
|  7> * xyz 0 1
|  8> W         -1.37621        2.56722        0.10711
|  9> C          0.70839        2.53117        0.30993
| 10> C         -1.33834        4.66140        0.07376
| 11> C         -3.46098        2.60316       -0.09572
| 12> C         -1.41502        0.47296        0.14051
| 13> C         -1.57994        2.60535        2.19168
| 14> C         -1.17198        2.52910       -1.97739
| 15> O         -1.68985        2.62619        3.31419
| 16> O         -1.43573       -0.65466        0.15820
| 17> O         -1.31832        5.78914        0.05603
| 18> O         -1.06136        2.50831       -3.09969
| 19> O         -4.58356        2.62277       -0.20455
| 20> O          1.83095        2.51149        0.41866
| 21> **                         ****END OF INPUT****
 Total Charge           Charge          ....    0
 Multiplicity           Mult            ....    1
 Number of Electrons    NEL             ....   98
FINAL SINGLE POINT ENERGY      -747.175719491153
FINAL SINGLE POINT ENERGY      -747.177885547294
FINAL SINGLE POINT ENERGY      -747.177999072983
FINAL SINGLE POINT ENERGY      -747.178043757363
                    ***********************HURRAY********************

CARTESIAN COORDINATES (ANGSTROEM)
---------------------------------
  W     -1.376345    2.567195    0.107110
  C      0.694992    2.531861    0.309248
  C     -1.337940    4.648134    0.073517
  C     -3.447686    2.602513   -0.095059
  C     -1.414929    0.486259    0.140760
  C     -1.578254    2.604494    2.178426
  C     -1.174127    2.529923   -1.964180
  O     -1.689017    2.625249    3.313260
  O     -1.435985   -0.653826    0.159185
  O     -1.317045    5.788226    0.055289
  O     -1.062925    2.509220   -3.098972
  O     -4.582565    2.622138   -0.205556
  O      1.829876    2.512215    0.419692

 Multiplicity           Mult            ....    1
 Number of Electrons    NEL             ....   98
 Basis Dimension        Dim             ....  505

ORBITAL ENERGIES
----------------

  NO   OCC          E(Eh)            E(eV)
   0   2.0000     -19.225953      -523.1648
   1   2.0000     -19.225953      -523.1648
   2   2.0000     -19.225942      -523.1645
   3   2.0000     -19.225941      -523.1644
   4   2.0000     -19.225940      -523.1644
   5   2.0000     -19.225938      -523.1644
   6   2.0000     -10.306443      -280.4526
   7   2.0000     -10.306441      -280.4525
   8   2.0000     -10.306427      -280.4521
   9   2.0000     -10.306426      -280.4521
  10   2.0000     -10.306425      -280.4521
  11   2.0000     -10.306422      -280.4520
  12   2.0000      -2.962501       -80.6138
  13   2.0000      -1.612735       -43.8847
  14   2.0000      -1.612729       -43.8846
  15   2.0000      -1.612724       -43.8845
  16   2.0000      -1.159506       -31.5518
  17   2.0000      -1.158880       -31.5347
  18   2.0000      -1.158879       -31.5347
  19   2.0000      -1.158877       -31.5347
  20   2.0000      -1.158748       -31.5311
  21   2.0000      -1.158747       -31.5311
  22   2.0000      -0.620554       -16.8861
  23   2.0000      -0.586978       -15.9725
  24   2.0000      -0.586978       -15.9725
  25   2.0000      -0.580374       -15.7928
  26   2.0000      -0.580369       -15.7926
  27   2.0000      -0.580361       -15.7924
  28   2.0000      -0.519152       -14.1269
  29   2.0000      -0.491206       -13.3664
  30   2.0000      -0.491201       -13.3663
  31   2.0000      -0.491199       -13.3662
  32   2.0000      -0.487268       -13.2592
  33   2.0000      -0.487262       -13.2591
  34   2.0000      -0.484375       -13.1805
  35   2.0000      -0.484365       -13.1802
  36   2.0000      -0.484359       -13.1801
  37   2.0000      -0.476884       -12.9767
  38   2.0000      -0.476879       -12.9765
  39   2.0000      -0.476874       -12.9764
  40   2.0000      -0.471954       -12.8425
  41   2.0000      -0.471954       -12.8425
  42   2.0000      -0.471952       -12.8425
  43   2.0000      -0.427819       -11.6415
  44   2.0000      -0.427816       -11.6415
  45   2.0000      -0.427797       -11.6409
  46   2.0000      -0.252459        -6.8698
  47   2.0000      -0.252445        -6.8694
  48   2.0000      -0.252435        -6.8691
  49   0.0000      -0.078405        -2.1335
  50   0.0000      -0.078386        -2.1330
  51   0.0000      -0.078378        -2.1328
  52   0.0000      -0.054141        -1.4733
  53   0.0000      -0.054122        -1.4727

MULLIKEN ATOMIC CHARGES
-----------------------
   0 W :    1.941563
   1 C :   -0.035508
   2 C :   -0.033846
   3 C :   -0.035638
   4 C :   -0.033741
   5 C :   -0.035704
   6 C :   -0.035370
   7 O :   -0.288683
   8 O :   -0.288544
   9 O :   -0.288395
  10 O :   -0.288725
  11 O :   -0.288700
  12 O :   -0.288709
Sum of atomic charges:   -0.0000000

LOEWDIN ATOMIC CHARGES
----------------------
   0 W :    0.653105
   1 C :   -0.227235
   2 C :   -0.227169
   3 C :   -0.227231
   4 C :   -0.227169
   5 C :   -0.227241
   6 C :   -0.227238
   7 O :    0.118364
   8 O :    0.118362
   9 O :    0.118362
  10 O :    0.118363
  11 O :    0.118361
  12 O :    0.118365

  Mayer bond orders larger than 0.100000
B(  0-W ,  1-C ) :   0.5378 B(  0-W ,  2-C ) :   0.5390 B(  0-W ,  3-C ) :   0.5376
B(  0-W ,  4-C ) :   0.5389 B(  0-W ,  5-C ) :   0.5374 B(  0-W ,  6-C ) :   0.5378
B(  1-C , 12-O ) :   2.1484 B(  2-C ,  9-O ) :   2.1481 B(  3-C , 11-O ) :   2.1484
B(  4-C ,  8-O ) :   2.1477 B(  5-C ,  7-O ) :   2.1485 B(  6-C , 10-O ) :   2.1485

FINAL SINGLE POINT ENERGY      -747.178043823888

DIPOLE MOMENT
-------------
                                X             Y             Z
Electronic contribution:     -0.00344      -0.00043      -0.00188
Nuclear contribution   :      0.00337       0.00042       0.00183
                        -----------------------------------------
Total Dipole Moment    :     -0.00007      -0.00001      -0.00006
                        -----------------------------------------
Magnitude (a.u.)       :      0.00009
Magnitude (Debye)      :      0.00023

VIBRATIONAL FREQUENCIES
-----------------------

Scaling factor for frequencies =  1.000000000  (already applied!)

   0:         0.00 cm**-1
   1:         0.00 cm**-1
   2:         0.00 cm**-1
   3:         0.00 cm**-1
   4:         0.00 cm**-1
   5:         0.00 cm**-1
   6:        57.67 cm**-1
   7:        57.74 cm**-1
   8:        57.80 cm**-1
   9:        81.32 cm**-1
  10:        81.34 cm**-1
  11:        81.39 cm**-1
  12:        82.96 cm**-1
  13:        83.11 cm**-1
  14:        83.13 cm**-1
  15:       362.76 cm**-1
  16:       362.77 cm**-1
  17:       362.84 cm**-1
  18:       366.81 cm**-1
  19:       366.91 cm**-1
  20:       366.93 cm**-1
  21:       406.81 cm**-1
  22:       406.89 cm**-1
  23:       424.64 cm**-1
  24:       482.86 cm**-1
  25:       482.88 cm**-1
  26:       482.91 cm**-1
  27:       532.89 cm**-1
  28:       532.94 cm**-1
  29:       532.96 cm**-1
  30:       594.40 cm**-1
  31:       594.46 cm**-1
  32:       594.48 cm**-1
  33:      2051.51 cm**-1
  34:      2051.62 cm**-1
  35:      2051.64 cm**-1
  36:      2077.68 cm**-1
  37:      2077.76 cm**-1
  38:      2178.26 cm**-1

IR SPECTRUM
-----------

 Mode   freq       eps      Int      T**2         TX        TY        TZ
       cm**-1   L/(mol*cm) km/mol    a.u.
----------------------------------------------------------------------------
  6:     57.67   0.000000    0.00  0.000000  ( 0.000154  0.000001 -0.000046)
  7:     57.74   0.000000    0.00  0.000000  (-0.000075 -0.000060 -0.000196)
  8:     57.80   0.000000    0.00  0.000000  ( 0.000074  0.000009  0.000032)
  9:     81.32   0.000224    1.13  0.000861  ( 0.007831  0.017225  0.022432)
 10:     81.34   0.000224    1.13  0.000861  (-0.026961 -0.002449  0.011298)
 11:     81.39   0.000224    1.13  0.000861  ( 0.008500 -0.023627  0.015170)
 12:     82.96   0.000000    0.00  0.000000  (-0.000013 -0.000000 -0.000028)
 13:     83.11   0.000000    0.00  0.000000  ( 0.000002 -0.000011 -0.000004)
 14:     83.13   0.000000    0.00  0.000000  ( 0.000002 -0.000011 -0.000002)
 15:    362.76   0.000000    0.00  0.000000  (-0.000005  0.000015 -0.000020)
 16:    362.77   0.000000    0.00  0.000000  (-0.000006  0.000047 -0.000008)
 17:    362.84   0.000000    0.00  0.000000  (-0.000005 -0.000016 -0.000044)
 18:    366.81   0.011830   59.78  0.010064  ( 0.008846  0.099731 -0.006309)
 19:    366.91   0.011823   59.75  0.010056  ( 0.091683 -0.005611  0.040234)
 20:    366.93   0.011831   59.79  0.010062  (-0.039704  0.009340  0.091643)
 21:    406.81   0.000000    0.00  0.000000  (-0.000019  0.000001  0.000004)
 22:    406.89   0.000000    0.00  0.000000  ( 0.000011  0.000003  0.000006)
 23:    424.64   0.000000    0.00  0.000000  ( 0.000008  0.000001  0.000006)
 24:    482.86   0.000000    0.00  0.000000  (-0.000004  0.000003  0.000023)
 25:    482.88   0.000000    0.00  0.000000  ( 0.000000  0.000013  0.000003)
 26:    482.91   0.000000    0.00  0.000000  (-0.000001 -0.000005  0.000007)
 27:    532.89   0.000000    0.00  0.000000  ( 0.000060  0.000017  0.000046)
 28:    532.94   0.000000    0.00  0.000000  (-0.000074 -0.000036  0.000007)
 29:    532.96   0.000000    0.00  0.000000  (-0.000051 -0.000020  0.000058)
 30:    594.40   0.013804   69.76  0.007247  ( 0.013746  0.082782  0.014323)
 31:    594.46   0.013791   69.69  0.007239  ( 0.044449  0.005212 -0.072365)
 32:    594.48   0.013807   69.78  0.007248  (-0.071258  0.019142 -0.042472)
 33:   2051.51   0.439431  2220.71  0.066844  (-0.014899 -0.257902  0.010390)
 34:   2051.62   0.439310  2220.09  0.066822  ( 0.171113 -0.002096  0.193746)
 35:   2051.64   0.439658  2221.85  0.066874  (-0.193260  0.018109  0.170870)
 36:   2077.68   0.000000    0.00  0.000000  ( 0.000033  0.000021 -0.000028)
 37:   2077.76   0.000000    0.00  0.000000  ( 0.000034  0.000005 -0.000017)
 38:   2178.26   0.000000    0.00  0.000000  ( 0.000006 -0.000002  0.000000)

--------------------------
THERMOCHEMISTRY AT 298.15K
--------------------------

Temperature         ... 298.15 K
Pressure            ... 1.00 atm
Total Mass          ... 351.91 AMU

Throughout the following assumptions are being made:
  (1) The electronic state is orbitally nondegenerate
  (2) There are no thermally accessible electronically excited states
  (3) Hindered rotations indicated by low frequency modes are not
      treated as such but are treated as vibrations and this may
      cause some error
  (4) All equations used are the standard statistical mechanics
      equations for an ideal gas
  (5) All vibrations are strictly harmonic

freq.      57.67  E(vib)   ...       0.51
freq.      57.74  E(vib)   ...       0.51
freq.      57.80  E(vib)   ...       0.51
freq.      81.32  E(vib)   ...       0.48
freq.      81.34  E(vib)   ...       0.48
freq.      81.39  E(vib)   ...       0.48
freq.      82.96  E(vib)   ...       0.48
freq.      83.11  E(vib)   ...       0.48
freq.      83.13  E(vib)   ...       0.48
freq.     362.76  E(vib)   ...       0.22
freq.     362.77  E(vib)   ...       0.22
freq.     362.84  E(vib)   ...       0.22
freq.     366.81  E(vib)   ...       0.22
freq.     366.91  E(vib)   ...       0.22
freq.     366.93  E(vib)   ...       0.22
freq.     406.81  E(vib)   ...       0.19
freq.     406.89  E(vib)   ...       0.19
freq.     424.64  E(vib)   ...       0.18
freq.     482.86  E(vib)   ...       0.15
freq.     482.88  E(vib)   ...       0.15
freq.     482.91  E(vib)   ...       0.15
freq.     532.89  E(vib)   ...       0.13
freq.     532.94  E(vib)   ...       0.13
freq.     532.96  E(vib)   ...       0.13
freq.     594.40  E(vib)   ...       0.10
freq.     594.46  E(vib)   ...       0.10
freq.     594.48  E(vib)   ...       0.10
freq.    2051.51  E(vib)   ...       0.00
freq.    2051.62  E(vib)   ...       0.00
freq.    2051.64  E(vib)   ...       0.00
freq.    2077.68  E(vib)   ...       0.00
freq.    2077.76  E(vib)   ...       0.00
freq.    2178.26  E(vib)   ...       0.00

------------
INNER ENERGY
------------

The inner energy is: U= E(el) + E(ZPE) + E(vib) + E(rot) + E(trans)
    E(el)   - is the total energy from the electronic structure calculation
              = E(kin-el) + E(nuc-el) + E(el-el) + E(nuc-nuc)
    E(ZPE)  - the the zero temperature vibrational energy from the frequency calculation
    E(vib)  - the the finite temperature correction to E(ZPE) due to population
              of excited vibrational states
    E(rot)  - is the rotational thermal energy
    E(trans)- is the translational thermal energy

Summary of contributions to the inner energy U:
Electronic energy                ...   -747.17804382 Eh
Zero point energy                ...      0.04878249 Eh      30.61 kcal/mol
Thermal vibrational correction   ...      0.01184052 Eh       7.43 kcal/mol
Thermal rotational correction    ...      0.00141627 Eh       0.89 kcal/mol
Thermal translational correction ...      0.00141627 Eh       0.89 kcal/mol
-----------------------------------------------------------------------
Total thermal energy                   -747.11458826 Eh

Summary of corrections to the electronic energy:
(perhaps to be used in another calculation)
Total thermal correction                  0.01467307 Eh       9.21 kcal/mol
Non-thermal (ZPE) correction              0.04878249 Eh      30.61 kcal/mol
-----------------------------------------------------------------------
Total correction                          0.06345556 Eh      39.82 kcal/mol

--------
ENTHALPY
--------

The enthalpy is H = U + kB*T
                kB is Boltzmann's constant
Total free energy                 ...   -747.11458826 Eh
Thermal Enthalpy correction       ...      0.00094421 Eh       0.59 kcal/mol
-----------------------------------------------------------------------
Total Enthalpy                    ...   -747.11364405 Eh

Note: Only C1 symmetry has been detected, increase convergence thresholds
      if your molecule has a higher symmetry. Symmetry factor of 1.0 is
      used for the rotational entropy correction.

Note: Rotational entropy computed according to Herzberg
Infrared and Raman Spectra, Chapter V,1, Van Nostrand Reinhold, 1945
Point Group:  C1, Symmetry Number:   1
Rotational constants in cm-1:     0.019326     0.019321     0.019317

Vibrational entropy computed according to the QRRHO of S. Grimme
Chem.Eur.J. 2012 18 9955

-------
ENTROPY
-------

The entropy contributions are T*S = T*(S(el)+S(vib)+S(rot)+S(trans))
     S(el)   - electronic entropy
     S(vib)  - vibrational entropy
     S(rot)  - rotational entropy
     S(trans)- translational entropy
The entropies will be listed as multiplied by the temperature to get
units of energy

Electronic entropy                ...      0.00000000 Eh      0.00 kcal/mol
Vibrational entropy               ...      0.02135521 Eh     13.40 kcal/mol
Rotational entropy                ...      0.01510019 Eh      9.48 kcal/mol
Translational entropy             ...      0.02065320 Eh     12.96 kcal/mol
-----------------------------------------------------------------------
Final entropy term                ...      0.05710860 Eh     35.84 kcal/mol

In case the symmetry of your molecule has not been determined correctly
or in case you have a reason to use a different symmetry number we print
out the resulting rotational entropy values for sn=1,12 :
 --------------------------------------------------------
|  sn= 1 | S(rot)=       0.01510019 Eh      9.48 kcal/mol|
|  sn= 2 | S(rot)=       0.01444573 Eh      9.06 kcal/mol|
|  sn= 3 | S(rot)=       0.01406290 Eh      8.82 kcal/mol|
|  sn= 4 | S(rot)=       0.01379128 Eh      8.65 kcal/mol|
|  sn= 5 | S(rot)=       0.01358059 Eh      8.52 kcal/mol|
|  sn= 6 | S(rot)=       0.01340844 Eh      8.41 kcal/mol|
|  sn= 7 | S(rot)=       0.01326290 Eh      8.32 kcal/mol|
|  sn= 8 | S(rot)=       0.01313682 Eh      8.24 kcal/mol|
|  sn= 9 | S(rot)=       0.01302561 Eh      8.17 kcal/mol|
|  sn=10 | S(rot)=       0.01292613 Eh      8.11 kcal/mol|
|  sn=11 | S(rot)=       0.01283614 Eh      8.05 kcal/mol|
|  sn=12 | S(rot)=       0.01275399 Eh      8.00 kcal/mol|
 --------------------------------------------------------

-------------------
GIBBS FREE ENERGY
-------------------

The Gibbs free energy is G = H - T*S

Total enthalpy                    ...   -747.11364405 Eh
Total entropy correction          ...     -0.05710860 Eh    -35.84 kcal/mol
-----------------------------------------------------------------------
Final Gibbs free energy         ...   -747.17075266 Eh

For completeness - the Gibbs free energy minus the electronic energy
G-E(el)                           ...      0.00729117 Eh      4.58 kcal/mol

                             ****ORCA TERMINATED NORMALLY****
TOTAL RUN TIME: 0 days 0 hours 33 minutes 19 seconds 495 msec
