                         Program Version 5.0.4 -  RELEASE  -
|  1> !B3LYP def2-TZVPD OPT FREQ TightSCF PAL8
|  2>
|  3> %scf
|  4>   MaxIter 300
|  5> end
|  6>
|  7> * xyz -1 2
|  8> W         -1.37621        2.56722        0.10711
|  9> C          0.70839        2.53117        0.30993
| 10> C         -1.33834        4.66140        0.07376
| 11> C         -3.46098        2.60316       -0.09572
| 12> C         -1.41502        0.47296        0.14051
| 13> C         -1.57994        2.60535        2.19168
| 14> C         -1.17198        2.52910       -1.97739
| 15> O         -1.68985        2.62619        3.31419
| 16> O         -1.43573       -0.65466        0.15820
| 17> O         -1.31832        5.78914        0.05603
| 18> O         -1.06136        2.50831       -3.09969
| 19> O         -4.58356        2.62277       -0.20455
| 20> O          1.83095        2.51149        0.41866
| 21> **                         ****END OF INPUT****
 Total Charge           Charge          ....   -1
 Multiplicity           Mult            ....    2
 Number of Electrons    NEL             ....   99
FINAL SINGLE POINT ENERGY      -747.186187995681
FINAL SINGLE POINT ENERGY      -747.198344818307
FINAL SINGLE POINT ENERGY      -747.199394161474
FINAL SINGLE POINT ENERGY      -747.199884140929
FINAL SINGLE POINT ENERGY      -747.200362663007
FINAL SINGLE POINT ENERGY      -747.200630920293
FINAL SINGLE POINT ENERGY      -747.200664501359
FINAL SINGLE POINT ENERGY      -747.200690884416
FINAL SINGLE POINT ENERGY      -747.200709599345
FINAL SINGLE POINT ENERGY      -747.200715750260
                    ***********************HURRAY********************

CARTESIAN COORDINATES (ANGSTROEM)
---------------------------------
  W     -1.375892    2.567260    0.107700
  C      0.699259    2.492870    0.218273
  C     -1.382427    4.638968    0.109634
  C     -3.451463    2.642896   -0.001690
  C     -1.372079    0.495529    0.102513
  C     -1.668699    2.644681    2.165480
  C     -1.081675    2.488378   -1.950283
  O     -1.927895    2.735676    3.292130
  O     -1.328377   -0.662066    0.061646
  O     -1.430558    5.796579    0.144751
  O     -0.820102    2.395416   -3.076271
  O     -4.606958    2.732828    0.037295
  O      1.854916    2.404585    0.181543

 Multiplicity           Mult            ....    2
 Number of Electrons    NEL             ....   99
 Basis Dimension        Dim             ....  505

ORBITAL ENERGIES
----------------
                 SPIN UP ORBITALS
  NO   OCC          E(Eh)            E(eV)
   0   1.0000     -19.054974      -518.5122
   1   1.0000     -19.054969      -518.5121
   2   1.0000     -19.053132      -518.4621
   3   1.0000     -19.053125      -518.4619
   4   1.0000     -19.053069      -518.4604
   5   1.0000     -19.053067      -518.4603
   6   1.0000     -10.135631      -275.8045
   7   1.0000     -10.135627      -275.8044
   8   1.0000     -10.132944      -275.7314
   9   1.0000     -10.132929      -275.7310
  10   1.0000     -10.132877      -275.7296
  11   1.0000     -10.132866      -275.7293
  12   1.0000      -2.798152       -76.1416
  13   1.0000      -1.448429       -39.4137
  14   1.0000      -1.447081       -39.3771
  15   1.0000      -1.445403       -39.3314
  16   1.0000      -0.982979       -26.7482
  17   1.0000      -0.982763       -26.7423
  18   1.0000      -0.981056       -26.6959
  19   1.0000      -0.980858       -26.6905
  20   1.0000      -0.980466       -26.6798
  21   1.0000      -0.980448       -26.6794
  22   1.0000      -0.458806       -12.4847
  23   1.0000      -0.426481       -11.6051
  24   1.0000      -0.424969       -11.5640
  25   1.0000      -0.421767       -11.4769
  26   1.0000      -0.419838       -11.4244
  27   1.0000      -0.417706       -11.3663
  28   1.0000      -0.352883        -9.6024
  29   1.0000      -0.325855        -8.8670
  30   1.0000      -0.323984        -8.8161
  31   1.0000      -0.321251        -8.7417
  32   1.0000      -0.321111        -8.7379
  33   1.0000      -0.317942        -8.6516
  34   1.0000      -0.317414        -8.6373
  35   1.0000      -0.314140        -8.5482
  36   1.0000      -0.313738        -8.5372
  37   1.0000      -0.311290        -8.4706
  38   1.0000      -0.308241        -8.3877
  39   1.0000      -0.304525        -8.2866
  40   1.0000      -0.303347        -8.2545
  41   1.0000      -0.303340        -8.2543
  42   1.0000      -0.301137        -8.1943
  43   1.0000      -0.263761        -7.1773
  44   1.0000      -0.258159        -7.0249
  45   1.0000      -0.254678        -6.9301
  46   1.0000      -0.095993        -2.6121
  47   1.0000      -0.089072        -2.4238
  48   1.0000      -0.086248        -2.3469
  49   1.0000       0.032386         0.8813
  50   0.0000       0.082263         2.2385
  51   0.0000       0.082762         2.2521
  52   0.0000       0.091949         2.5021
  53   0.0000       0.099360         2.7037
  54   0.0000       0.110664         3.0113

                 SPIN DOWN ORBITALS
  NO   OCC          E(Eh)            E(eV)
   0   1.0000     -19.053445      -518.4706
   1   1.0000     -19.053440      -518.4705
   2   1.0000     -19.051510      -518.4179
   3   1.0000     -19.051505      -518.4178
   4   1.0000     -19.051437      -518.4160
   5   1.0000     -19.051435      -518.4159
   6   1.0000     -10.133787      -275.7544
   7   1.0000     -10.133783      -275.7542
   8   1.0000     -10.130638      -275.6687
   9   1.0000     -10.130631      -275.6685
  10   1.0000     -10.130557      -275.6665
  11   1.0000     -10.130555      -275.6664
  12   1.0000      -2.800687       -76.2106
  13   1.0000      -1.451701       -39.5028
  14   1.0000      -1.449873       -39.4531
  15   1.0000      -1.448825       -39.4245
  16   1.0000      -0.980155       -26.6714
  17   1.0000      -0.979958       -26.6660
  18   1.0000      -0.978043       -26.6139
  19   1.0000      -0.977844       -26.6085
  20   1.0000      -0.977462       -26.5981
  21   1.0000      -0.977435       -26.5973
  22   1.0000      -0.452494       -12.3130
  23   1.0000      -0.421555       -11.4711
  24   1.0000      -0.419544       -11.4164
  25   1.0000      -0.417077       -11.3492
  26   1.0000      -0.415109       -11.2957
  27   1.0000      -0.412779       -11.2323
  28   1.0000      -0.350039        -9.5250
  29   1.0000      -0.320725        -8.7274
  30   1.0000      -0.319531        -8.6949
  31   1.0000      -0.316823        -8.6212
  32   1.0000      -0.312383        -8.5004
  33   1.0000      -0.311917        -8.4877
  34   1.0000      -0.311716        -8.4822
  35   1.0000      -0.311516        -8.4768
  36   1.0000      -0.310863        -8.4590
  37   1.0000      -0.303385        -8.2555
  38   1.0000      -0.301428        -8.2023
  39   1.0000      -0.299986        -8.1630
  40   1.0000      -0.298392        -8.1197
  41   1.0000      -0.297010        -8.0821
  42   1.0000      -0.293852        -7.9961
  43   1.0000      -0.256031        -6.9670
  44   1.0000      -0.252547        -6.8722
  45   1.0000      -0.248175        -6.7532
  46   1.0000      -0.088363        -2.4045
  47   1.0000      -0.086084        -2.3425
  48   1.0000      -0.084509        -2.2996
  49   0.0000       0.084791         2.3073
  50   0.0000       0.085715         2.3324
  51   0.0000       0.087670         2.3856
  52   0.0000       0.109278         2.9736
  53   0.0000       0.110688         3.0120

MULLIKEN ATOMIC CHARGES AND SPIN POPULATIONS
--------------------------------------------
   0 W :    1.832568    0.084032
   1 C :   -0.053212    0.100912
   2 C :   -0.042097    0.111693
   3 C :   -0.054645    0.102241
   4 C :   -0.041980    0.111710
   5 C :   -0.055733    0.101053
   6 C :   -0.056941    0.102364
   7 O :   -0.421002    0.048979
   8 O :   -0.421589    0.044626
   9 O :   -0.421768    0.044620
  10 O :   -0.420937    0.049484
  11 O :   -0.421278    0.049364
  12 O :   -0.421386    0.048922
Sum of atomic charges         :   -1.0000000

LOEWDIN ATOMIC CHARGES AND SPIN POPULATIONS
-------------------------------------------
   0 W :    0.661525   -0.056536
   1 C :   -0.292632    0.116354
   2 C :   -0.291930    0.100309
   3 C :   -0.292517    0.117016
   4 C :   -0.291912    0.100308
   5 C :   -0.292333    0.116644
   6 C :   -0.292195    0.117363
   7 O :    0.014155    0.066400
   8 O :    0.017741    0.061125
   9 O :    0.017729    0.061124
  10 O :    0.014001    0.066871
  11 O :    0.014116    0.066726
  12 O :    0.014253    0.066297

  Mayer bond orders larger than 0.100000
B(  0-W ,  1-C ) :   0.6210 B(  0-W ,  2-C ) :   0.6618 B(  0-W ,  3-C ) :   0.6203
B(  0-W ,  4-C ) :   0.6620 B(  0-W ,  5-C ) :   0.6195 B(  0-W ,  6-C ) :   0.6189
B(  1-C , 12-O ) :   1.9533 B(  2-C ,  9-O ) :   1.9561 B(  3-C , 11-O ) :   1.9531
B(  4-C ,  8-O ) :   1.9564 B(  5-C ,  7-O ) :   1.9540 B(  6-C , 10-O ) :   1.9539

FINAL SINGLE POINT ENERGY      -747.200716915692

DIPOLE MOMENT
-------------
                                X             Y             Z
Electronic contribution:      0.03428       0.00484       0.04741
Nuclear contribution   :     -0.03296      -0.00484      -0.04560
                        -----------------------------------------
Total Dipole Moment    :      0.00132       0.00000       0.00181
                        -----------------------------------------
Magnitude (a.u.)       :      0.00224
Magnitude (Debye)      :      0.00569

VIBRATIONAL FREQUENCIES
-----------------------

Scaling factor for frequencies =  1.000000000  (already applied!)

   0:         0.00 cm**-1
   1:         0.00 cm**-1
   2:         0.00 cm**-1
   3:         0.00 cm**-1
   4:         0.00 cm**-1
   5:         0.00 cm**-1
   6:       -24.62 cm**-1 ***imaginary mode***
   7:        35.79 cm**-1
   8:        44.51 cm**-1
   9:        57.51 cm**-1
  10:        63.86 cm**-1
  11:        64.09 cm**-1
  12:        75.29 cm**-1
  13:        76.87 cm**-1
  14:        77.51 cm**-1
  15:       289.20 cm**-1
  16:       297.84 cm**-1
  17:       343.28 cm**-1
  18:       346.32 cm**-1
  19:       365.96 cm**-1
  20:       380.69 cm**-1
  21:       399.36 cm**-1
  22:       402.44 cm**-1
  23:       424.85 cm**-1
  24:       453.07 cm**-1
  25:       455.76 cm**-1
  26:       467.28 cm**-1
  27:       482.67 cm**-1
  28:       489.06 cm**-1
  29:       541.17 cm**-1
  30:       545.69 cm**-1
  31:       581.04 cm**-1
  32:       586.65 cm**-1
  33:      1793.26 cm**-1
  34:      1846.73 cm**-1
  35:      1903.69 cm**-1
  36:      1921.76 cm**-1
  37:      1945.09 cm**-1
  38:      2069.05 cm**-1

IR SPECTRUM
-----------

 Mode   freq       eps      Int      T**2         TX        TY        TZ
       cm**-1   L/(mol*cm) km/mol    a.u.
----------------------------------------------------------------------------
  7:     35.79   0.000150    0.76  0.001311  ( 0.026824  0.008856 -0.022651)
  8:     44.51   0.000062    0.31  0.000432  ( 0.013732  0.000714  0.015591)
  9:     57.51   0.000002    0.01  0.000011  ( 0.002189 -0.000080  0.002480)
 10:     63.86   0.000086    0.43  0.000419  ( 0.010007 -0.016062 -0.007808)
 11:     64.09   0.000049    0.25  0.000237  ( 0.007595 -0.012004 -0.005937)
 12:     75.29   0.000000    0.00  0.000000  ( 0.000052 -0.000026  0.000096)
 13:     76.87   0.000123    0.62  0.000500  (-0.008102 -0.019096  0.008330)
 14:     77.51   0.000156    0.79  0.000628  ( 0.016196  0.000986  0.019097)
 15:    289.20   0.003052   15.42  0.003294  ( 0.033318 -0.000469  0.046725)
 16:    297.84   0.002869   14.50  0.003006  ( 0.044368  0.008674 -0.031027)
 17:    343.28   0.002633   13.31  0.002394  (-0.004770 -0.048530  0.004004)
 18:    346.32   0.000003    0.01  0.000003  ( 0.000162  0.001605 -0.000131)
 19:    365.96   0.000000    0.00  0.000000  ( 0.000217 -0.000359 -0.000217)
 20:    380.69   0.000000    0.00  0.000000  ( 0.000097 -0.000022  0.000130)
 21:    399.36   0.000000    0.00  0.000000  (-0.000120  0.000015 -0.000182)
 22:    402.44   0.000000    0.00  0.000000  ( 0.000185  0.000029 -0.000156)
 23:    424.85   0.000000    0.00  0.000000  ( 0.000038 -0.000001  0.000034)
 24:    453.07   0.000000    0.00  0.000000  (-0.000042 -0.000029  0.000032)
 25:    455.76   0.001917    9.69  0.001312  (-0.024395 -0.017613  0.020171)
 26:    467.28   0.001605    8.11  0.001072  ( 0.020809  0.000081  0.025282)
 27:    482.67   0.000001    0.00  0.000001  (-0.000448 -0.000001 -0.000559)
 28:    489.06   0.000000    0.00  0.000000  ( 0.000200 -0.000015 -0.000129)
 29:    541.17   0.001613    8.15  0.000930  (-0.020446  0.015098  0.016853)
 30:    545.69   0.000000    0.00  0.000000  ( 0.000260 -0.000095  0.000383)
 31:    581.04   0.003961   20.02  0.002127  ( 0.029393 -0.000411  0.035544)
 32:    586.65   0.006271   31.69  0.003336  ( 0.013279  0.055213 -0.010549)
 33:   1793.26   0.000004    0.02  0.000001  (-0.000570 -0.000207  0.000552)
 34:   1846.73   0.000007    0.04  0.000001  ( 0.000686  0.000014  0.000872)
 35:   1903.69   0.577340  2917.64  0.094641  ( 0.193411 -0.002072  0.239225)
 36:   1921.76   0.563324  2846.81  0.091475  (-0.110139 -0.268074  0.086488)
 37:   1945.09   0.523385  2644.97  0.083970  ( 0.197328 -0.138749 -0.160563)
 38:   2069.05   0.000000    0.00  0.000000  (-0.000077  0.000023 -0.000111)

--------------------------
THERMOCHEMISTRY AT 298.15K
--------------------------

Temperature         ... 298.15 K
Pressure            ... 1.00 atm
Total Mass          ... 351.91 AMU

Throughout the following assumptions are being made:
  (1) The electronic state is orbitally nondegenerate
      but the spin degeneracy is treated
  (2) There are no thermally accessible electronically excited states
  (3) Hindered rotations indicated by low frequency modes are not
      treated as such but are treated as vibrations and this may
      cause some error
  (4) All equations used are the standard statistical mechanics
      equations for an ideal gas
  (5) All vibrations are strictly harmonic

freq.      35.79  E(vib)   ...       0.54
freq.      44.51  E(vib)   ...       0.53
freq.      57.51  E(vib)   ...       0.51
freq.      63.86  E(vib)   ...       0.51
freq.      64.09  E(vib)   ...       0.51
freq.      75.29  E(vib)   ...       0.49
freq.      76.87  E(vib)   ...       0.49
freq.      77.51  E(vib)   ...       0.49
freq.     289.20  E(vib)   ...       0.27
freq.     297.84  E(vib)   ...       0.27
freq.     343.28  E(vib)   ...       0.23
freq.     346.32  E(vib)   ...       0.23
freq.     365.96  E(vib)   ...       0.22
freq.     380.69  E(vib)   ...       0.21
freq.     399.36  E(vib)   ...       0.19
freq.     402.44  E(vib)   ...       0.19
freq.     424.85  E(vib)   ...       0.18
freq.     453.07  E(vib)   ...       0.16
freq.     455.76  E(vib)   ...       0.16
freq.     467.28  E(vib)   ...       0.16
freq.     482.67  E(vib)   ...       0.15
freq.     489.06  E(vib)   ...       0.15
freq.     541.17  E(vib)   ...       0.12
freq.     545.69  E(vib)   ...       0.12
freq.     581.04  E(vib)   ...       0.11
freq.     586.65  E(vib)   ...       0.11
freq.    1793.26  E(vib)   ...       0.00
freq.    1846.73  E(vib)   ...       0.00
freq.    1903.69  E(vib)   ...       0.00
freq.    1921.76  E(vib)   ...       0.00
freq.    1945.09  E(vib)   ...       0.00
freq.    2069.05  E(vib)   ...       0.00

------------
INNER ENERGY
------------

The inner energy is: U= E(el) + E(ZPE) + E(vib) + E(rot) + E(trans)
    E(el)   - is the total energy from the electronic structure calculation
              = E(kin-el) + E(nuc-el) + E(el-el) + E(nuc-nuc)
    E(ZPE)  - the the zero temperature vibrational energy from the frequency calculation
    E(vib)  - the the finite temperature correction to E(ZPE) due to population
              of excited vibrational states
    E(rot)  - is the rotational thermal energy
    E(trans)- is the translational thermal energy

Summary of contributions to the inner energy U:
Electronic energy                ...   -747.20071692 Eh
Zero point energy                ...      0.04517003 Eh      28.34 kcal/mol
Thermal vibrational correction   ...      0.01162143 Eh       7.29 kcal/mol
Thermal rotational correction    ...      0.00141627 Eh       0.89 kcal/mol
Thermal translational correction ...      0.00141627 Eh       0.89 kcal/mol
-----------------------------------------------------------------------
Total thermal energy                   -747.14109291 Eh

Summary of corrections to the electronic energy:
(perhaps to be used in another calculation)
Total thermal correction                  0.01445397 Eh       9.07 kcal/mol
Non-thermal (ZPE) correction              0.04517003 Eh      28.34 kcal/mol
-----------------------------------------------------------------------
Total correction                          0.05962401 Eh      37.41 kcal/mol

--------
ENTHALPY
--------

The enthalpy is H = U + kB*T
                kB is Boltzmann's constant
Total free energy                 ...   -747.14109291 Eh
Thermal Enthalpy correction       ...      0.00094421 Eh       0.59 kcal/mol
-----------------------------------------------------------------------
Total Enthalpy                    ...   -747.14014870 Eh

Note: Only C1 symmetry has been detected, increase convergence thresholds
      if your molecule has a higher symmetry. Symmetry factor of 1.0 is
      used for the rotational entropy correction.

Note: Rotational entropy computed according to Herzberg
Infrared and Raman Spectra, Chapter V,1, Van Nostrand Reinhold, 1945
Point Group:  C1, Symmetry Number:   1
Rotational constants in cm-1:     0.021118     0.018822     0.018008

Vibrational entropy computed according to the QRRHO of S. Grimme
Chem.Eur.J. 2012 18 9955

-------
ENTROPY
-------

The entropy contributions are T*S = T*(S(el)+S(vib)+S(rot)+S(trans))
     S(el)   - electronic entropy
     S(vib)  - vibrational entropy
     S(rot)  - rotational entropy
     S(trans)- translational entropy
The entropies will be listed as multiplied by the temperature to get
units of energy

Electronic entropy                ...      0.00065446 Eh      0.41 kcal/mol
Vibrational entropy               ...      0.02094269 Eh     13.14 kcal/mol
Rotational entropy                ...      0.01510380 Eh      9.48 kcal/mol
Translational entropy             ...      0.02065320 Eh     12.96 kcal/mol
-----------------------------------------------------------------------
Final entropy term                ...      0.05735415 Eh     35.99 kcal/mol

In case the symmetry of your molecule has not been determined correctly
or in case you have a reason to use a different symmetry number we print
out the resulting rotational entropy values for sn=1,12 :
 --------------------------------------------------------
|  sn= 1 | S(rot)=       0.01510380 Eh      9.48 kcal/mol|
|  sn= 2 | S(rot)=       0.01444935 Eh      9.07 kcal/mol|
|  sn= 3 | S(rot)=       0.01406651 Eh      8.83 kcal/mol|
|  sn= 4 | S(rot)=       0.01379489 Eh      8.66 kcal/mol|
|  sn= 5 | S(rot)=       0.01358420 Eh      8.52 kcal/mol|
|  sn= 6 | S(rot)=       0.01341206 Eh      8.42 kcal/mol|
|  sn= 7 | S(rot)=       0.01326651 Eh      8.32 kcal/mol|
|  sn= 8 | S(rot)=       0.01314043 Eh      8.25 kcal/mol|
|  sn= 9 | S(rot)=       0.01302922 Eh      8.18 kcal/mol|
|  sn=10 | S(rot)=       0.01292975 Eh      8.11 kcal/mol|
|  sn=11 | S(rot)=       0.01283976 Eh      8.06 kcal/mol|
|  sn=12 | S(rot)=       0.01275760 Eh      8.01 kcal/mol|
 --------------------------------------------------------

-------------------
GIBBS FREE ENERGY
-------------------

The Gibbs free energy is G = H - T*S

Total enthalpy                    ...   -747.14014870 Eh
Total entropy correction          ...     -0.05735415 Eh    -35.99 kcal/mol
-----------------------------------------------------------------------
Final Gibbs free energy         ...   -747.19750285 Eh

For completeness - the Gibbs free energy minus the electronic energy
G-E(el)                           ...      0.00321407 Eh      2.02 kcal/mol

                             ****ORCA TERMINATED NORMALLY****
TOTAL RUN TIME: 0 days 1 hours 22 minutes 4 seconds 184 msec
