                         Program Version 5.0.4 -  RELEASE  -
|  1> # input to generate an atomic fitting density for Mo
|  2> # this file is used internally by ORCA
|  3> #
|  4> # atomic ground state (S=5): 1s2 2s2 2p6 3s2 3p6 4s2 3d10 4p6 5s2 4d4
|  5> #
|  6> ! RHF AllowRHF def2-SVP def2/J  NoMulliken NoLoewdin NoMayer NoPrintMOs
|  7>
|  8> %output print[p_atomdensfit] 2 end
|  9>
| 10> %scf
| 11>   guess hcore
| 12>   maxiter 1000
| 13>   maxdisk 500000
| 14>   SCFMode Conventional
| 15>   lshift 0.600000
| 16>   hftyp rohf
| 17>   rohf_case sahf
| 18>   rohf_numop   2
| 19>   rohf_norb[1] 5
| 20>   rohf_nel[1]  4
| 21> end
| 22>
| 23> %basis
| 24>   NewECP 42
| 25>     N_core 28
| 26>     lmax f
| 27>     s 4
| 28>       1       9.7145938000    180.1031085000  2
| 29>       2       4.6805004000     24.9972279000  2
| 30>       3       9.4500000000     24.8051771000  2
| 31>       4       4.7200000000      4.1537815000  2
| 32>     p 4
| 33>       1       8.1421366000    123.7727523000  2
| 34>       2       4.6259863000     19.5302280000  2
| 35>       3       9.4500000000     24.8051771000  2
| 36>       4       4.7200000000      4.1537815000  2
| 37>     d 4
| 38>       1       6.6184148000     48.3750223000  2
| 39>       2       3.2487516000      8.8920527000  2
| 40>       3       9.4500000000     24.8051771000  2
| 41>       4       4.7200000000      4.1537815000  2
| 42>     f 2
| 43>       1       9.4500000000    -24.8051771000  2
| 44>       2       4.7200000000     -4.1537815000  2
| 45>   end
| 46>   NewGTO 42
| 47>     s 3
| 48>      1       7.2033800000     -0.8629257632
| 49>      2       5.0522950000      1.5530909736
| 50>      3       2.9135330000      0.2686460943
| 51>     s 1
| 52>      1       0.9785821868      1.0000000000
| 53>     s 1
| 54>      1       0.4436915375      1.0000000000
| 55>     s 1
| 56>      1       0.0921500907      1.0000000000
| 57>     s 1
| 58>      1       0.0348022469      1.0000000000
| 59>     p 4
| 60>      1       3.1518660000     -0.7258750751
| 61>      2       2.4534820000      0.7720278188
| 62>      3       0.8503019218      0.6545282682
| 63>      4       0.3691823718      0.2705844698
| 64>     p 1
| 65>      1       0.1349062746      1.0000000000
| 66>     p 1
| 67>      1       0.0382000000      1.0000000000
| 68>     d 4
| 69>      1       5.0044445497     -0.0235634366
| 70>      2       1.7736823324      0.2287720303
| 71>      3       0.7695059170      0.4773393314
| 72>      4       0.3153087894      0.4488834333
| 73>     d 1
| 74>      1       0.1175437439      1.0000000000
| 75>   end
| 76>   NewAuxGTO 42
| 77>     S 1
| 78>      1 1310.72 1.0
| 79>     S 1
| 80>      1  655.36 1.0
| 81>     S 1
| 82>      1  327.68 1.0
| 83>     S 1
| 84>      1  163.84 1.0
| 85>     S 1
| 86>      1   81.82 1.0
| 87>     S 1
| 88>      1   40.96 1.0
| 89>     S 1
| 90>      1   20.48 1.0
| 91>     S 1
| 92>      1   10.24 1.0
| 93>     S 1
| 94>      1    5.12 1.0
| 95>     S 1
| 96>      1    2.56 1.0
| 97>     S 1
| 98>      1    1.28 1.0
| 99>     S 1
|100>      1    0.64 1.0
|101>     S 1
|102>      1    0.32 1.0
|103>     S 1
|104>      1    0.16 1.0
|105>     S 1
|106>      1    0.08 1.0
|107>     S 1
|108>      1    0.04 1.0
|109>     S 1
|110>      1    0.02 1.0
|111>     S 1
|112>      1    0.01 1.0
|113>   end
|114> end
|115>
|116> * xyz 0 5
|117> 42  0.0 0.0 0.0
|118> *
|119>
|120>
|121>                          ****END OF INPUT****

CARTESIAN COORDINATES (ANGSTROEM)
---------------------------------
  Mo     0.000000    0.000000    0.000000

 Total Charge           Charge          ....    0
 Multiplicity           Mult            ....    5
 Number of Electrons    NEL             ....   14
 Basis Dimension        Dim             ....   24

ORBITAL ENERGIES
----------------

  NO   OCC          E(Eh)            E(eV)
   0   2.0000      -3.360036       -91.4312
   1   2.0000      -2.176514       -59.2259
   2   2.0000      -2.175962       -59.2109
   3   2.0000      -2.163935       -58.8837
   4   2.0000      -0.595353       -16.2004
   5   0.8000      -0.636440       -17.3184
   6   0.8000      -0.451925       -12.2975
   7   0.8000      -0.235309        -6.4031
   8   0.8000      -0.234463        -6.3801
   9   0.8000      -0.215994        -5.8775
  10   0.0000      -0.252902        -6.8818
  11   0.0000      -0.226538        -6.1644
  12   0.0000      -0.225390        -6.1332
  13   0.0000       0.054163         1.4739
  14   0.0000       0.155309         4.2262

FINAL SINGLE POINT ENERGY       -67.006365974440

DIPOLE MOMENT
-------------
                                X             Y             Z
Electronic contribution:      0.00000       0.00000       0.00000
Nuclear contribution   :      0.00000       0.00000       0.00000
                        -----------------------------------------
Total Dipole Moment    :      0.00000       0.00000       0.00000
                        -----------------------------------------
Magnitude (a.u.)       :      0.00000
Magnitude (Debye)      :      0.00000

Rotational constants in cm-1:     0.000000     0.000000     0.000000
Rotational constants in MHz :     0.000000     0.000000     0.000000

                             ****ORCA TERMINATED NORMALLY****
TOTAL RUN TIME: 0 days 0 hours 0 minutes 2 seconds 117 msec
