                         Program Version 5.0.4 -  RELEASE  -
|  1> # input to generate an atomic fitting density for Hf
|  2> # this file is used internally by ORCA
|  3> #
|  4> # atomic ground state (S=3): 1s2 2s2 2p6 3s2 3p6 4s2 3d10 4p6 5s2 4d10 5p6 6s2 4f14 5d2
|  5> #
|  6> ! RHF AllowRHF def2-SVP def2/J  NoMulliken NoLoewdin NoMayer NoPrintMOs
|  7>
|  8> %output print[p_atomdensfit] 2 end
|  9>
| 10> %scf
| 11>   guess hcore
| 12>   maxiter 1000
| 13>   maxdisk 500000
| 14>   SCFMode Conventional
| 15>   lshift 0.200000
| 16>   hftyp rohf
| 17>   rohf_case sahf
| 18>   rohf_numop   2
| 19>   rohf_norb[1] 5
| 20>   rohf_nel[1]  2
| 21> end
| 22>
| 23> %basis
| 24>   NewECP 72
| 25>     N_core 60
| 26>     lmax f
| 27>     s 3
| 28>       1      14.7699590000   1499.2847107000  2
| 29>       2       7.3849794000     40.2821014000  2
| 30>       3       1.7857698000    -10.0467225000  2
| 31>     p 3
| 32>       1       9.8494895000    397.7330053000  2
| 33>       2       4.9247445000     19.3164059000  2
| 34>       3       1.7857698000    -10.0467225000  2
| 35>     d 3
| 36>       1       6.0967564000    101.3298053000  2
| 37>       2       3.0483782000      5.8734382000  2
| 38>       3       1.7857698000    -10.0467225000  2
| 39>     f 1
| 40>       1       1.7857698000     10.0467225000  2
| 41>   end
| 42>   NewGTO 72
| 43>     s 2
| 44>      1      14.5924850000     -1.0819410429
| 45>      2      11.5474910000      2.0589671501
| 46>     s 1
| 47>      1       4.9112973928      1.0000000000
| 48>     s 1
| 49>      1       0.7966546941      1.0000000000
| 50>     s 1
| 51>      1       0.3423407289      1.0000000000
| 52>     s 1
| 53>      1       0.0981091977      1.0000000000
| 54>     s 1
| 55>      1       0.0361909844      1.0000000000
| 56>     p 4
| 57>      1       6.7265310000      0.7143914513
| 58>      2       5.9599790000     -0.9189874315
| 59>      3       1.0921117054      0.5551512588
| 60>      4       0.4970282322      0.5704639534
| 61>     p 1
| 62>      1       0.2025897379      1.0000000000
| 63>     p 1
| 64>      1       0.0336000000      1.0000000000
| 65>     d 4
| 66>      1       3.9820623229     -0.0478543287
| 67>      2       1.3077987772      0.2075486429
| 68>      3       0.5327231030      0.4677020499
| 69>      4       0.2056495449      0.4985918966
| 70>     d 1
| 71>      1       0.0730998588      1.0000000000
| 72>     f 1
| 73>      1       0.3154700000      1.0000000000
| 74>   end
| 75>   NewAuxGTO 72
| 76>     S 1
| 77>      1 1310.72 1.0
| 78>     S 1
| 79>      1  655.36 1.0
| 80>     S 1
| 81>      1  327.68 1.0
| 82>     S 1
| 83>      1  163.84 1.0
| 84>     S 1
| 85>      1   81.82 1.0
| 86>     S 1
| 87>      1   40.96 1.0
| 88>     S 1
| 89>      1   20.48 1.0
| 90>     S 1
| 91>      1   10.24 1.0
| 92>     S 1
| 93>      1    5.12 1.0
| 94>     S 1
| 95>      1    2.56 1.0
| 96>     S 1
| 97>      1    1.28 1.0
| 98>     S 1
| 99>      1    0.64 1.0
|100>     S 1
|101>      1    0.32 1.0
|102>     S 1
|103>      1    0.16 1.0
|104>     S 1
|105>      1    0.08 1.0
|106>     S 1
|107>      1    0.04 1.0
|108>     S 1
|109>      1    0.02 1.0
|110>     S 1
|111>      1    0.01 1.0
|112>   end
|113> end
|114>
|115> * xyz 0 3
|116> 72  0.0 0.0 0.0
|117> *
|118>
|119>
|120>                          ****END OF INPUT****

CARTESIAN COORDINATES (ANGSTROEM)
---------------------------------
  Hf     0.000000    0.000000    0.000000

 Total Charge           Charge          ....    0
 Multiplicity           Mult            ....    3
 Number of Electrons    NEL             ....   12
 Basis Dimension        Dim             ....   32

ORBITAL ENERGIES
----------------

  NO   OCC          E(Eh)            E(eV)
   0   2.0000      -3.079732       -83.8038
   1   2.0000      -1.734134       -47.1882
   2   2.0000      -1.734108       -47.1875
   3   2.0000      -1.734066       -47.1863
   4   2.0000      -0.346532        -9.4296
   5   0.4000      -0.327622        -8.9151
   6   0.4000      -0.327528        -8.9125
   7   0.4000      -0.169249        -4.6055
   8   0.4000      -0.169235        -4.6051
   9   0.4000      -0.169215        -4.6046
  10   0.0000      -0.223799        -6.0899
  11   0.0000      -0.223758        -6.0888
  12   0.0000      -0.223733        -6.0881
  13   0.0000      -0.018477        -0.5028
  14   0.0000       0.074521         2.0278

FINAL SINGLE POINT ENERGY       -47.226945575749

DIPOLE MOMENT
-------------
                                X             Y             Z
Electronic contribution:     -0.00000       0.00000      -0.00000
Nuclear contribution   :      0.00000       0.00000       0.00000
                        -----------------------------------------
Total Dipole Moment    :     -0.00000       0.00000      -0.00000
                        -----------------------------------------
Magnitude (a.u.)       :      0.00000
Magnitude (Debye)      :      0.00000

Rotational constants in cm-1:     0.000000     0.000000     0.000000
Rotational constants in MHz :     0.000000     0.000000     0.000000

                             ****ORCA TERMINATED NORMALLY****
TOTAL RUN TIME: 0 days 0 hours 0 minutes 1 seconds 623 msec
