                         Program Version 5.0.4 -  RELEASE  -
|  1> !B3LYP def2-SVP OPT FREQ
|  2>
|  3> * xyz -2 1
|  4> Hf        -0.43733        0.82114       -0.00327
|  5> C          1.85069        0.75179       -0.21043
|  6> C         -0.36713        3.11851        0.00002
|  7> C         -2.72538        0.89099        0.20388
|  8> C         -0.50743       -1.47623       -0.00656
|  9> O         -0.33267        4.24599        0.00163
| 10> O          2.97368        0.71783       -0.31146
| 11> O         -0.54180       -2.60370       -0.00817
| 12> O         -3.84828        0.92536        0.30489
| 13> C         -0.64818        0.83067       -2.29202
| 14> C         -0.22660        0.81111        2.28546
| 15> O         -0.75232        0.83529       -3.41517
| 16> O         -0.12255        0.80608        3.40866
| 17> **                         ****END OF INPUT****
 Total Charge           Charge          ....   -2
 Multiplicity           Mult            ....    1
 Number of Electrons    NEL             ....   98
FINAL SINGLE POINT ENERGY      -727.104633792305
FINAL SINGLE POINT ENERGY      -727.134598708413
FINAL SINGLE POINT ENERGY      -727.135757070394
FINAL SINGLE POINT ENERGY      -727.135802432641
FINAL SINGLE POINT ENERGY      -727.135887711176
                    ***********************HURRAY********************

CARTESIAN COORDINATES (ANGSTROEM)
---------------------------------
  Hf    -0.437451    0.821144   -0.003242
  C      1.795166    0.753475   -0.206699
  C     -0.369140    3.063175    0.000066
  C     -2.670069    0.889256    0.200219
  C     -0.505264   -1.420900   -0.006664
  O     -0.332417    4.238802    0.001771
  O      2.965991    0.717736   -0.313221
  O     -0.541141   -2.596553   -0.008579
  O     -3.840880    0.925393    0.306744
  C     -0.641726    0.830238   -2.237076
  C     -0.233279    0.811611    2.230605
  O     -0.749450    0.834990   -3.408328
  O     -0.125640    0.806463    3.401863

 Multiplicity           Mult            ....    1
 Number of Electrons    NEL             ....   98
 Basis Dimension        Dim             ....  200

ORBITAL ENERGIES
----------------

  NO   OCC          E(Eh)            E(eV)
   0   2.0000     -18.894628      -514.1490
   1   2.0000     -18.894543      -514.1467
   2   2.0000     -18.894539      -514.1465
   3   2.0000     -18.894520      -514.1460
   4   2.0000     -18.894498      -514.1454
   5   2.0000     -18.894482      -514.1450
   6   2.0000      -9.972510      -271.3658
   7   2.0000      -9.972493      -271.3653
   8   2.0000      -9.972411      -271.3631
   9   2.0000      -9.972398      -271.3627
  10   2.0000      -9.972381      -271.3623
  11   2.0000      -9.972307      -271.3603
  12   2.0000      -2.058911       -56.0258
  13   2.0000      -0.909931       -24.7605
  14   2.0000      -0.909926       -24.7603
  15   2.0000      -0.909919       -24.7602
  16   2.0000      -0.791141       -21.5281
  17   2.0000      -0.790681       -21.5155
  18   2.0000      -0.790668       -21.5152
  19   2.0000      -0.790640       -21.5144
  20   2.0000      -0.790637       -21.5143
  21   2.0000      -0.790619       -21.5138
  22   2.0000      -0.259106        -7.0506
  23   2.0000      -0.246046        -6.6952
  24   2.0000      -0.246036        -6.6950
  25   2.0000      -0.244617        -6.6564
  26   2.0000      -0.244610        -6.6562
  27   2.0000      -0.244596        -6.6558
  28   2.0000      -0.150338        -4.0909
  29   2.0000      -0.141722        -3.8564
  30   2.0000      -0.141714        -3.8562
  31   2.0000      -0.141711        -3.8562
  32   2.0000      -0.138099        -3.7579
  33   2.0000      -0.138091        -3.7576
  34   2.0000      -0.138085        -3.7575
  35   2.0000      -0.134231        -3.6526
  36   2.0000      -0.134221        -3.6523
  37   2.0000      -0.134218        -3.6523
  38   2.0000      -0.131121        -3.5680
  39   2.0000      -0.131114        -3.5678
  40   2.0000      -0.131110        -3.5677
  41   2.0000      -0.101655        -2.7662
  42   2.0000      -0.101630        -2.7655
  43   2.0000      -0.067535        -1.8377
  44   2.0000      -0.067523        -1.8374
  45   2.0000      -0.067491        -1.8365
  46   2.0000       0.144826         3.9409
  47   2.0000       0.144844         3.9414
  48   2.0000       0.144864         3.9419
  49   0.0000       0.246530         6.7084
  50   0.0000       0.246536         6.7086
  51   0.0000       0.246539         6.7087
  52   0.0000       0.272805         7.4234
  53   0.0000       0.272839         7.4243

MULLIKEN ATOMIC CHARGES
-----------------------
   0 Hf:   -0.489510
   1 C :   -0.023373
   2 C :   -0.022864
   3 C :   -0.023373
   4 C :   -0.022862
   5 O :   -0.228629
   6 O :   -0.228547
   7 O :   -0.228629
   8 O :   -0.228537
   9 C :   -0.023299
  10 C :   -0.023300
  11 O :   -0.228539
  12 O :   -0.228539
Sum of atomic charges:   -2.0000000

LOEWDIN ATOMIC CHARGES
----------------------
   0 Hf:   -1.584824
   1 C :    0.058262
   2 C :    0.058352
   3 C :    0.058260
   4 C :    0.058353
   5 O :   -0.127500
   6 O :   -0.127496
   7 O :   -0.127500
   8 O :   -0.127491
   9 C :    0.058276
  10 C :    0.058275
  11 O :   -0.127484
  12 O :   -0.127484

  Mayer bond orders larger than 0.100000
B(  0-Hf,  1-C ) :   0.8768 B(  0-Hf,  2-C ) :   0.8770 B(  0-Hf,  3-C ) :   0.8768
B(  0-Hf,  4-C ) :   0.8770 B(  0-Hf,  5-O ) :   0.1044 B(  0-Hf,  6-O ) :   0.1043
B(  0-Hf,  7-O ) :   0.1044 B(  0-Hf,  8-O ) :   0.1043 B(  0-Hf,  9-C ) :   0.8767
B(  0-Hf, 10-C ) :   0.8767 B(  0-Hf, 11-O ) :   0.1043 B(  0-Hf, 12-O ) :   0.1043
B(  1-C ,  6-O ) :   2.1154 B(  2-C ,  5-O ) :   2.1154 B(  3-C ,  8-O ) :   2.1155
B(  4-C ,  7-O ) :   2.1154 B(  9-C , 11-O ) :   2.1155 B( 10-C , 12-O ) :   2.1155

FINAL SINGLE POINT ENERGY      -727.135887893997

DIPOLE MOMENT
-------------
                                X             Y             Z
Electronic contribution:     -0.01006       0.00030       0.00251
Nuclear contribution   :      0.00986      -0.00029      -0.00247
                        -----------------------------------------
Total Dipole Moment    :     -0.00020       0.00000       0.00004
                        -----------------------------------------
Magnitude (a.u.)       :      0.00020
Magnitude (Debye)      :      0.00052

VIBRATIONAL FREQUENCIES
-----------------------

Scaling factor for frequencies =  1.000000000  (already applied!)

   0:         0.00 cm**-1
   1:         0.00 cm**-1
   2:         0.00 cm**-1
   3:         0.00 cm**-1
   4:         0.00 cm**-1
   5:         0.00 cm**-1
   6:        19.70 cm**-1
   7:        20.08 cm**-1
   8:        20.16 cm**-1
   9:        47.83 cm**-1
  10:        47.96 cm**-1
  11:        48.04 cm**-1
  12:        60.89 cm**-1
  13:        61.08 cm**-1
  14:        61.08 cm**-1
  15:       335.36 cm**-1
  16:       335.51 cm**-1
  17:       335.67 cm**-1
  18:       337.45 cm**-1
  19:       337.54 cm**-1
  20:       337.64 cm**-1
  21:       337.69 cm**-1
  22:       337.78 cm**-1
  23:       346.62 cm**-1
  24:       399.19 cm**-1
  25:       399.28 cm**-1
  26:       399.35 cm**-1
  27:       461.66 cm**-1
  28:       461.74 cm**-1
  29:       461.75 cm**-1
  30:       519.47 cm**-1
  31:       519.57 cm**-1
  32:       519.59 cm**-1
  33:      1876.04 cm**-1
  34:      1876.08 cm**-1
  35:      1876.12 cm**-1
  36:      1887.05 cm**-1
  37:      1887.11 cm**-1
  38:      2004.56 cm**-1

IR SPECTRUM
-----------

 Mode   freq       eps      Int      T**2         TX        TY        TZ
       cm**-1   L/(mol*cm) km/mol    a.u.
----------------------------------------------------------------------------
  6:     19.70   0.000000    0.00  0.000000  (-0.000248  0.000121 -0.000221)
  7:     20.08   0.000000    0.00  0.000000  ( 0.000235 -0.000011 -0.000132)
  8:     20.16   0.000000    0.00  0.000000  ( 0.000076 -0.000082  0.000192)
  9:     47.83   0.000071    0.36  0.000461  ( 0.007818 -0.016855  0.010765)
 10:     47.96   0.000071    0.36  0.000460  ( 0.015852 -0.001846 -0.014334)
 11:     48.04   0.000071    0.36  0.000461  (-0.012262 -0.013090 -0.011819)
 12:     60.89   0.000000    0.00  0.000000  ( 0.000001  0.000005 -0.000006)
 13:     61.08   0.000000    0.00  0.000000  ( 0.000003  0.000006 -0.000006)
 14:     61.08   0.000000    0.00  0.000000  ( 0.000006  0.000011  0.000006)
 15:    335.36   0.000000    0.00  0.000000  ( 0.000004 -0.000005  0.000019)
 16:    335.51   0.000000    0.00  0.000000  ( 0.000015 -0.000014 -0.000011)
 17:    335.67   0.000000    0.00  0.000000  (-0.000007  0.000005 -0.000024)
 18:    337.45   0.000956    4.83  0.000884  (-0.001095  0.000056 -0.029715)
 19:    337.54   0.000957    4.84  0.000885  (-0.002020 -0.029680 -0.000000)
 20:    337.64   0.000014    0.07  0.000013  ( 0.003435 -0.001110 -0.000205)
 21:    337.69   0.000940    4.75  0.000869  (-0.029394  0.001939  0.001016)
 22:    337.78   0.000000    0.00  0.000000  (-0.000048 -0.000539 -0.000112)
 23:    346.62   0.000000    0.00  0.000000  (-0.000024  0.000001  0.000009)
 24:    399.19   0.000000    0.00  0.000000  ( 0.000000 -0.000002  0.000002)
 25:    399.28   0.000000    0.00  0.000000  ( 0.000000 -0.000001 -0.000002)
 26:    399.35   0.000000    0.00  0.000000  (-0.000003 -0.000029 -0.000000)
 27:    461.66   0.000000    0.00  0.000000  (-0.000051  0.000076 -0.000017)
 28:    461.74   0.000000    0.00  0.000000  ( 0.000006  0.000080  0.000064)
 29:    461.75   0.000000    0.00  0.000000  (-0.000003  0.000049 -0.000111)
 30:    519.47   0.007137   36.07  0.004288  ( 0.001332 -0.064376  0.011894)
 31:    519.57   0.007138   36.07  0.004287  ( 0.028618 -0.010150 -0.058009)
 32:    519.59   0.007118   35.97  0.004275  ( 0.058811  0.006351  0.027855)
 33:   1876.04   0.652844  3299.21  0.108595  (-0.045643 -0.034488  0.324534)
 34:   1876.08   0.653102  3300.51  0.108636  ( 0.011492 -0.327718 -0.033239)
 35:   1876.12   0.653095  3300.47  0.108632  ( 0.326191  0.006683  0.046766)
 36:   1887.05   0.000000    0.00  0.000000  ( 0.000193  0.000098 -0.000008)
 37:   1887.11   0.000000    0.00  0.000000  ( 0.000104 -0.000159 -0.000044)
 38:   2004.56   0.000000    0.00  0.000000  (-0.000026  0.000001  0.000009)

--------------------------
THERMOCHEMISTRY AT 298.15K
--------------------------

Temperature         ... 298.15 K
Pressure            ... 1.00 atm
Total Mass          ... 346.55 AMU

Throughout the following assumptions are being made:
  (1) The electronic state is orbitally nondegenerate
  (2) There are no thermally accessible electronically excited states
  (3) Hindered rotations indicated by low frequency modes are not
      treated as such but are treated as vibrations and this may
      cause some error
  (4) All equations used are the standard statistical mechanics
      equations for an ideal gas
  (5) All vibrations are strictly harmonic

freq.      19.70  E(vib)   ...       0.56
freq.      20.08  E(vib)   ...       0.56
freq.      20.16  E(vib)   ...       0.56
freq.      47.83  E(vib)   ...       0.53
freq.      47.96  E(vib)   ...       0.53
freq.      48.04  E(vib)   ...       0.53
freq.      60.89  E(vib)   ...       0.51
freq.      61.08  E(vib)   ...       0.51
freq.      61.08  E(vib)   ...       0.51
freq.     335.36  E(vib)   ...       0.24
freq.     335.51  E(vib)   ...       0.24
freq.     335.67  E(vib)   ...       0.24
freq.     337.45  E(vib)   ...       0.24
freq.     337.54  E(vib)   ...       0.24
freq.     337.64  E(vib)   ...       0.24
freq.     337.69  E(vib)   ...       0.24
freq.     337.78  E(vib)   ...       0.24
freq.     346.62  E(vib)   ...       0.23
freq.     399.19  E(vib)   ...       0.19
freq.     399.28  E(vib)   ...       0.19
freq.     399.35  E(vib)   ...       0.19
freq.     461.66  E(vib)   ...       0.16
freq.     461.74  E(vib)   ...       0.16
freq.     461.75  E(vib)   ...       0.16
freq.     519.47  E(vib)   ...       0.13
freq.     519.57  E(vib)   ...       0.13
freq.     519.59  E(vib)   ...       0.13
freq.    1876.04  E(vib)   ...       0.00
freq.    1876.08  E(vib)   ...       0.00
freq.    1876.12  E(vib)   ...       0.00
freq.    1887.05  E(vib)   ...       0.00
freq.    1887.11  E(vib)   ...       0.00
freq.    2004.56  E(vib)   ...       0.00

------------
INNER ENERGY
------------

The inner energy is: U= E(el) + E(ZPE) + E(vib) + E(rot) + E(trans)
    E(el)   - is the total energy from the electronic structure calculation
              = E(kin-el) + E(nuc-el) + E(el-el) + E(nuc-nuc)
    E(ZPE)  - the the zero temperature vibrational energy from the frequency calculation
    E(vib)  - the the finite temperature correction to E(ZPE) due to population
              of excited vibrational states
    E(rot)  - is the rotational thermal energy
    E(trans)- is the translational thermal energy

Summary of contributions to the inner energy U:
Electronic energy                ...   -727.13588789 Eh
Zero point energy                ...      0.04323199 Eh      27.13 kcal/mol
Thermal vibrational correction   ...      0.01335388 Eh       8.38 kcal/mol
Thermal rotational correction    ...      0.00141627 Eh       0.89 kcal/mol
Thermal translational correction ...      0.00141627 Eh       0.89 kcal/mol
-----------------------------------------------------------------------
Total thermal energy                   -727.07646948 Eh

Summary of corrections to the electronic energy:
(perhaps to be used in another calculation)
Total thermal correction                  0.01618642 Eh      10.16 kcal/mol
Non-thermal (ZPE) correction              0.04323199 Eh      27.13 kcal/mol
-----------------------------------------------------------------------
Total correction                          0.05941841 Eh      37.29 kcal/mol

--------
ENTHALPY
--------

The enthalpy is H = U + kB*T
                kB is Boltzmann's constant
Total free energy                 ...   -727.07646948 Eh
Thermal Enthalpy correction       ...      0.00094421 Eh       0.59 kcal/mol
-----------------------------------------------------------------------
Total Enthalpy                    ...   -727.07552527 Eh

Note: Only C1 symmetry has been detected, increase convergence thresholds
      if your molecule has a higher symmetry. Symmetry factor of 1.0 is
      used for the rotational entropy correction.

Note: Rotational entropy computed according to Herzberg
Infrared and Raman Spectra, Chapter V,1, Van Nostrand Reinhold, 1945
Point Group:  C1, Symmetry Number:   1
Rotational constants in cm-1:     0.017034     0.017030     0.017024

Vibrational entropy computed according to the QRRHO of S. Grimme
Chem.Eur.J. 2012 18 9955

-------
ENTROPY
-------

The entropy contributions are T*S = T*(S(el)+S(vib)+S(rot)+S(trans))
     S(el)   - electronic entropy
     S(vib)  - vibrational entropy
     S(rot)  - rotational entropy
     S(trans)- translational entropy
The entropies will be listed as multiplied by the temperature to get
units of energy

Electronic entropy                ...      0.00000000 Eh      0.00 kcal/mol
Vibrational entropy               ...      0.02510076 Eh     15.75 kcal/mol
Rotational entropy                ...      0.01527902 Eh      9.59 kcal/mol
Translational entropy             ...      0.02063146 Eh     12.95 kcal/mol
-----------------------------------------------------------------------
Final entropy term                ...      0.06101125 Eh     38.29 kcal/mol

In case the symmetry of your molecule has not been determined correctly
or in case you have a reason to use a different symmetry number we print
out the resulting rotational entropy values for sn=1,12 :
 --------------------------------------------------------
|  sn= 1 | S(rot)=       0.01527902 Eh      9.59 kcal/mol|
|  sn= 2 | S(rot)=       0.01462457 Eh      9.18 kcal/mol|
|  sn= 3 | S(rot)=       0.01424174 Eh      8.94 kcal/mol|
|  sn= 4 | S(rot)=       0.01397011 Eh      8.77 kcal/mol|
|  sn= 5 | S(rot)=       0.01375942 Eh      8.63 kcal/mol|
|  sn= 6 | S(rot)=       0.01358728 Eh      8.53 kcal/mol|
|  sn= 7 | S(rot)=       0.01344173 Eh      8.43 kcal/mol|
|  sn= 8 | S(rot)=       0.01331566 Eh      8.36 kcal/mol|
|  sn= 9 | S(rot)=       0.01320445 Eh      8.29 kcal/mol|
|  sn=10 | S(rot)=       0.01310497 Eh      8.22 kcal/mol|
|  sn=11 | S(rot)=       0.01301498 Eh      8.17 kcal/mol|
|  sn=12 | S(rot)=       0.01293282 Eh      8.12 kcal/mol|
 --------------------------------------------------------

-------------------
GIBBS FREE ENERGY
-------------------

The Gibbs free energy is G = H - T*S

Total enthalpy                    ...   -727.07552527 Eh
Total entropy correction          ...     -0.06101125 Eh    -38.29 kcal/mol
-----------------------------------------------------------------------
Final Gibbs free energy         ...   -727.13653653 Eh

For completeness - the Gibbs free energy minus the electronic energy
G-E(el)                           ...     -0.00064863 Eh     -0.41 kcal/mol

                             ****ORCA TERMINATED NORMALLY****
TOTAL RUN TIME: 0 days 0 hours 18 minutes 47 seconds 454 msec
