                         Program Version 5.0.4 -  RELEASE  -
|  1> # input to generate an atomic fitting density for Pt
|  2> # this file is used internally by ORCA
|  3> #
|  4> # atomic ground state (S=3): 1s2 2s2 2p6 3s2 3p6 4s2 3d10 4p6 5s2 4d10 5p6 6s2 4f14 5d8
|  5> #
|  6> ! RHF AllowRHF def2-SVP def2/J  NoMulliken NoLoewdin NoMayer NoPrintMOs
|  7>
|  8> %output print[p_atomdensfit] 2 end
|  9>
| 10> %scf
| 11>   guess hcore
| 12>   maxiter 1000
| 13>   maxdisk 500000
| 14>   SCFMode Conventional
| 15>   lshift 1.000000
| 16>   hftyp rohf
| 17>   rohf_case sahf
| 18>   rohf_numop   2
| 19>   rohf_norb[1] 5
| 20>   rohf_nel[1]  8
| 21> end
| 22>
| 23> %basis
| 24>   NewECP 78
| 25>     N_core 60
| 26>     lmax f
| 27>     s 3
| 28>       1      13.4286513000    579.2238609000  2
| 29>       2       6.7143256000     29.6694906000  2
| 30>       3       3.3095686000    -24.3143757000  2
| 31>     p 3
| 32>       1      10.3659442000    280.8607742000  2
| 33>       2       5.1829721000     26.7453820000  2
| 34>       3       3.3095686000    -24.3143757000  2
| 35>     d 3
| 36>       1       7.6004795000    120.3964443000  2
| 37>       2       3.8002397000     15.8109206000  2
| 38>       3       3.3095686000    -24.3143757000  2
| 39>     f 1
| 40>       1       3.3095686000     24.3143757000  2
| 41>   end
| 42>   NewGTO 78
| 43>     s 2
| 44>      1      16.5595630000     -1.4034868456
| 45>      2      13.8924400000      2.3840288102
| 46>     s 1
| 47>      1       5.8531044732      1.0000000000
| 48>     s 1
| 49>      1       1.2498640609      1.0000000000
| 50>     s 1
| 51>      1       0.5560643946      1.0000000000
| 52>     s 1
| 53>      1       0.1379309381      1.0000000000
| 54>     s 1
| 55>      1       0.0489890341      1.0000000000
| 56>     p 4
| 57>      1       8.1000000000      0.7892094612
| 58>      2       7.2000000000     -1.0324576713
| 59>      3       1.5588402917      0.6181267861
| 60>      4       0.7323040218      0.5355635830
| 61>     p 1
| 62>      1       0.3027048467      1.0000000000
| 63>     p 1
| 64>      1       0.0500000000      1.0000000000
| 65>     d 4
| 66>      1       4.6299536825     -0.0961222016
| 67>      2       2.1980241252      0.2317061738
| 68>      3       0.9362999126      0.5095943996
| 69>      4       0.3716002816      0.4504073694
| 70>     d 1
| 71>      1       0.1315592862      1.0000000000
| 72>     f 1
| 73>      1       0.6681300000      1.0000000000
| 74>   end
| 75>   NewAuxGTO 78
| 76>     S 1
| 77>      1 1310.72 1.0
| 78>     S 1
| 79>      1  655.36 1.0
| 80>     S 1
| 81>      1  327.68 1.0
| 82>     S 1
| 83>      1  163.84 1.0
| 84>     S 1
| 85>      1   81.82 1.0
| 86>     S 1
| 87>      1   40.96 1.0
| 88>     S 1
| 89>      1   20.48 1.0
| 90>     S 1
| 91>      1   10.24 1.0
| 92>     S 1
| 93>      1    5.12 1.0
| 94>     S 1
| 95>      1    2.56 1.0
| 96>     S 1
| 97>      1    1.28 1.0
| 98>     S 1
| 99>      1    0.64 1.0
|100>     S 1
|101>      1    0.32 1.0
|102>     S 1
|103>      1    0.16 1.0
|104>     S 1
|105>      1    0.08 1.0
|106>     S 1
|107>      1    0.04 1.0
|108>     S 1
|109>      1    0.02 1.0
|110>     S 1
|111>      1    0.01 1.0
|112>   end
|113> end
|114>
|115> * xyz 0 3
|116> 78  0.0 0.0 0.0
|117> *
|118>
|119>
|120>                          ****END OF INPUT****

CARTESIAN COORDINATES (ANGSTROEM)
---------------------------------
  Pt     0.000000    0.000000    0.000000

 Total Charge           Charge          ....    0
 Multiplicity           Mult            ....    3
 Number of Electrons    NEL             ....   18
 Basis Dimension        Dim             ....   32

ORBITAL ENERGIES
----------------

  NO   OCC          E(Eh)            E(eV)
   0   2.0000      -4.507788      -122.6632
   1   2.0000      -2.600059       -70.7512
   2   2.0000      -2.596990       -70.6677
   3   2.0000      -2.594756       -70.6069
   4   2.0000      -0.460187       -12.5223
   5   1.6000      -0.477606       -12.9963
   6   1.6000      -0.476006       -12.9528
   7   1.6000      -0.470020       -12.7899
   8   1.6000      -0.461622       -12.5614
   9   1.6000      -0.307638        -8.3713
  10   0.0000       0.023422         0.6374
  11   0.0000       0.025332         0.6893
  12   0.0000       0.026700         0.7265
  13   0.0000       0.186301         5.0695
  14   0.0000       0.417184        11.3522

FINAL SINGLE POINT ENERGY      -118.362280876603

DIPOLE MOMENT
-------------
                                X             Y             Z
Electronic contribution:      0.00000      -0.00000      -0.00000
Nuclear contribution   :      0.00000       0.00000       0.00000
                        -----------------------------------------
Total Dipole Moment    :      0.00000      -0.00000      -0.00000
                        -----------------------------------------
Magnitude (a.u.)       :      0.00000
Magnitude (Debye)      :      0.00000

Rotational constants in cm-1:     0.000000     0.000000     0.000000
Rotational constants in MHz :     0.000000     0.000000     0.000000

                             ****ORCA TERMINATED NORMALLY****
TOTAL RUN TIME: 0 days 0 hours 0 minutes 0 seconds 715 msec
