                         Program Version 5.0.4 -  RELEASE  -
|  1> !B3LYP def2-SVP OPT FREQ
|  2>
|  3> * xyz -1 2
|  4> W         -1.37621        2.56722        0.10711
|  5> C          0.70839        2.53117        0.30993
|  6> C         -1.33834        4.66140        0.07376
|  7> C         -3.46098        2.60316       -0.09572
|  8> C         -1.41502        0.47296        0.14051
|  9> C         -1.57994        2.60535        2.19168
| 10> C         -1.17198        2.52910       -1.97739
| 11> O         -1.68985        2.62619        3.31419
| 12> O         -1.43573       -0.65466        0.15820
| 13> O         -1.31832        5.78914        0.05603
| 14> O         -1.06136        2.50831       -3.09969
| 15> O         -4.58356        2.62277       -0.20455
| 16> O          1.83095        2.51149        0.41866
| 17> **                         ****END OF INPUT****
 Total Charge           Charge          ....   -1
 Multiplicity           Mult            ....    2
 Number of Electrons    NEL             ....   99
FINAL SINGLE POINT ENERGY      -746.349048923106
FINAL SINGLE POINT ENERGY      -746.365406850476
FINAL SINGLE POINT ENERGY      -746.366414696990
FINAL SINGLE POINT ENERGY      -746.366977818465
FINAL SINGLE POINT ENERGY      -746.367457029855
FINAL SINGLE POINT ENERGY      -746.367725018798
FINAL SINGLE POINT ENERGY      -746.367829610882
FINAL SINGLE POINT ENERGY      -746.367881955519
FINAL SINGLE POINT ENERGY      -746.367941159263
FINAL SINGLE POINT ENERGY      -746.367960231724
FINAL SINGLE POINT ENERGY      -746.367968897719
FINAL SINGLE POINT ENERGY      -746.367972916919
FINAL SINGLE POINT ENERGY      -746.367975100657
FINAL SINGLE POINT ENERGY      -746.367976659735
FINAL SINGLE POINT ENERGY      -746.367978269545
FINAL SINGLE POINT ENERGY      -746.367980692917
FINAL SINGLE POINT ENERGY      -746.367982303438
FINAL SINGLE POINT ENERGY      -746.367982968073
                    ***********************HURRAY********************

CARTESIAN COORDINATES (ANGSTROEM)
---------------------------------
  W     -1.375921    2.567226    0.107722
  C      0.703398    2.477095    0.258659
  C     -1.396294    4.654178    0.123321
  C     -3.454873    2.657825   -0.044469
  C     -1.355829    0.480219    0.091548
  C     -1.629509    2.660675    2.176919
  C     -1.123481    2.473221   -1.961311
  O     -1.825873    2.773758    3.318566
  O     -1.280111   -0.679375    0.027534
  O     -1.472759    5.813807    0.185765
  O     -0.929354    2.359398   -3.103262
  O     -4.613114    2.768714   -0.075333
  O      1.861769    2.366859    0.287061

 Multiplicity           Mult            ....    2
 Number of Electrons    NEL             ....   99
 Basis Dimension        Dim             ....  200

ORBITAL ENERGIES
----------------
                 SPIN UP ORBITALS
  NO   OCC          E(Eh)            E(eV)
   0   1.0000     -19.054989      -518.5126
   1   1.0000     -19.054949      -518.5115
   2   1.0000     -19.054861      -518.5091
   3   1.0000     -19.054855      -518.5090
   4   1.0000     -19.054836      -518.5085
   5   1.0000     -19.054803      -518.5075
   6   1.0000     -10.138174      -275.8738
   7   1.0000     -10.138139      -275.8728
   8   1.0000     -10.138029      -275.8698
   9   1.0000     -10.137997      -275.8689
  10   1.0000     -10.137945      -275.8675
  11   1.0000     -10.137893      -275.8661
  12   1.0000      -2.790936       -75.9452
  13   1.0000      -1.441490       -39.2249
  14   1.0000      -1.439289       -39.1650
  15   1.0000      -1.439213       -39.1630
  16   1.0000      -0.957624       -26.0583
  17   1.0000      -0.957083       -26.0436
  18   1.0000      -0.956757       -26.0347
  19   1.0000      -0.956710       -26.0334
  20   1.0000      -0.956683       -26.0327
  21   1.0000      -0.956622       -26.0310
  22   1.0000      -0.440534       -11.9875
  23   1.0000      -0.407153       -11.0792
  24   1.0000      -0.407135       -11.0787
  25   1.0000      -0.403030       -10.9670
  26   1.0000      -0.400392       -10.8952
  27   1.0000      -0.400356       -10.8942
  28   1.0000      -0.340997        -9.2790
  29   1.0000      -0.313938        -8.5427
  30   1.0000      -0.310851        -8.4587
  31   1.0000      -0.310653        -8.4533
  32   1.0000      -0.309260        -8.4154
  33   1.0000      -0.306517        -8.3408
  34   1.0000      -0.306508        -8.3405
  35   1.0000      -0.302685        -8.2365
  36   1.0000      -0.302642        -8.2353
  37   1.0000      -0.298488        -8.1223
  38   1.0000      -0.298376        -8.1192
  39   1.0000      -0.293330        -7.9819
  40   1.0000      -0.292431        -7.9574
  41   1.0000      -0.292361        -7.9555
  42   1.0000      -0.289845        -7.8871
  43   1.0000      -0.250365        -6.8128
  44   1.0000      -0.243466        -6.6250
  45   1.0000      -0.243368        -6.6224
  46   1.0000      -0.085417        -2.3243
  47   1.0000      -0.076937        -2.0936
  48   1.0000      -0.076763        -2.0888
  49   1.0000       0.045139         1.2283
  50   0.0000       0.093628         2.5477
  51   0.0000       0.093708         2.5499
  52   0.0000       0.107166         2.9161
  53   0.0000       0.107559         2.9268
  54   0.0000       0.123374         3.3572

                 SPIN DOWN ORBITALS
  NO   OCC          E(Eh)            E(eV)
   0   1.0000     -19.053288      -518.4663
   1   1.0000     -19.053251      -518.4653
   2   1.0000     -19.053154      -518.4627
   3   1.0000     -19.053150      -518.4626
   4   1.0000     -19.053129      -518.4620
   5   1.0000     -19.053095      -518.4611
   6   1.0000     -10.135975      -275.8139
   7   1.0000     -10.135937      -275.8129
   8   1.0000     -10.135830      -275.8100
   9   1.0000     -10.135797      -275.8091
  10   1.0000     -10.135748      -275.8077
  11   1.0000     -10.135693      -275.8062
  12   1.0000      -2.793557       -76.0165
  13   1.0000      -1.444935       -39.3187
  14   1.0000      -1.442402       -39.2498
  15   1.0000      -1.442357       -39.2485
  16   1.0000      -0.954520       -25.9738
  17   1.0000      -0.953994       -25.9595
  18   1.0000      -0.953676       -25.9509
  19   1.0000      -0.953628       -25.9495
  20   1.0000      -0.953595       -25.9486
  21   1.0000      -0.953528       -25.9468
  22   1.0000      -0.434357       -11.8195
  23   1.0000      -0.402060       -10.9406
  24   1.0000      -0.402035       -10.9399
  25   1.0000      -0.398330       -10.8391
  26   1.0000      -0.395676       -10.7669
  27   1.0000      -0.395638       -10.7659
  28   1.0000      -0.338136        -9.2011
  29   1.0000      -0.308189        -8.3863
  30   1.0000      -0.308067        -8.3829
  31   1.0000      -0.302872        -8.2416
  32   1.0000      -0.301381        -8.2010
  33   1.0000      -0.301354        -8.2003
  34   1.0000      -0.300170        -8.1680
  35   1.0000      -0.299989        -8.1631
  36   1.0000      -0.299485        -8.1494
  37   1.0000      -0.291835        -7.9412
  38   1.0000      -0.288402        -7.8478
  39   1.0000      -0.288375        -7.8471
  40   1.0000      -0.288339        -7.8461
  41   1.0000      -0.283911        -7.7256
  42   1.0000      -0.283864        -7.7243
  43   1.0000      -0.242433        -6.5969
  44   1.0000      -0.237402        -6.4600
  45   1.0000      -0.237272        -6.4565
  46   1.0000      -0.076387        -2.0786
  47   1.0000      -0.075475        -2.0538
  48   1.0000      -0.075452        -2.0532
  49   0.0000       0.096401         2.6232
  50   0.0000       0.096556         2.6274
  51   0.0000       0.099709         2.7132
  52   0.0000       0.123548         3.3619
  53   0.0000       0.123635         3.3643

MULLIKEN ATOMIC CHARGES AND SPIN POPULATIONS
--------------------------------------------
   0 W :   -0.586807   -0.108360
   1 C :    0.072373    0.138404
   2 C :    0.073620    0.137552
   3 C :    0.072479    0.138128
   4 C :    0.073611    0.137631
   5 C :    0.072386    0.138392
   6 C :    0.072495    0.138122
   7 O :   -0.141754    0.046835
   8 O :   -0.141567    0.046479
   9 O :   -0.141570    0.046454
  10 O :   -0.141772    0.046741
  11 O :   -0.141754    0.046762
  12 O :   -0.141741    0.046860
Sum of atomic charges         :   -1.0000000

LOEWDIN ATOMIC CHARGES AND SPIN POPULATIONS
-------------------------------------------
   0 W :   -1.223100   -0.041978
   1 C :    0.091008    0.120504
   2 C :    0.091359    0.120393
   3 C :    0.091127    0.120245
   4 C :    0.091337    0.120457
   5 C :    0.090956    0.120706
   6 C :    0.091076    0.120441
   7 O :   -0.054030    0.053365
   8 O :   -0.053807    0.052999
   9 O :   -0.053807    0.052971
  10 O :   -0.054027    0.053256
  11 O :   -0.054044    0.053264
  12 O :   -0.054049    0.053377

  Mayer bond orders larger than 0.100000
B(  0-W ,  1-C ) :   0.9095 B(  0-W ,  2-C ) :   0.9088 B(  0-W ,  3-C ) :   0.9100
B(  0-W ,  4-C ) :   0.9087 B(  0-W ,  5-C ) :   0.9092 B(  0-W ,  6-C ) :   0.9097
B(  0-W ,  7-O ) :   0.1183 B(  0-W ,  8-O ) :   0.1183 B(  0-W ,  9-O ) :   0.1183
B(  0-W , 10-O ) :   0.1184 B(  0-W , 11-O ) :   0.1184 B(  0-W , 12-O ) :   0.1183
B(  1-C , 12-O ) :   2.2554 B(  2-C ,  9-O ) :   2.2561 B(  3-C , 11-O ) :   2.2554
B(  4-C ,  8-O ) :   2.2561 B(  5-C ,  7-O ) :   2.2555 B(  6-C , 10-O ) :   2.2554

FINAL SINGLE POINT ENERGY      -746.367983215307

DIPOLE MOMENT
-------------
                                X             Y             Z
Electronic contribution:      0.03210       0.00200       0.04927
Nuclear contribution   :     -0.03159      -0.00200      -0.04854
                        -----------------------------------------
Total Dipole Moment    :      0.00051      -0.00000       0.00073
                        -----------------------------------------
Magnitude (a.u.)       :      0.00089
Magnitude (Debye)      :      0.00226

VIBRATIONAL FREQUENCIES
-----------------------

Scaling factor for frequencies =  1.000000000  (already applied!)

   0:         0.00 cm**-1
   1:         0.00 cm**-1
   2:         0.00 cm**-1
   3:         0.00 cm**-1
   4:         0.00 cm**-1
   5:         0.00 cm**-1
   6:        44.28 cm**-1
   7:        47.50 cm**-1
   8:        47.55 cm**-1
   9:        48.65 cm**-1
  10:        60.22 cm**-1
  11:        64.44 cm**-1
  12:        80.66 cm**-1
  13:        81.16 cm**-1
  14:        81.29 cm**-1
  15:       300.71 cm**-1
  16:       302.90 cm**-1
  17:       311.64 cm**-1
  18:       344.14 cm**-1
  19:       371.13 cm**-1
  20:       371.97 cm**-1
  21:       399.87 cm**-1
  22:       399.95 cm**-1
  23:       424.75 cm**-1
  24:       463.50 cm**-1
  25:       464.34 cm**-1
  26:       472.14 cm**-1
  27:       472.99 cm**-1
  28:       474.52 cm**-1
  29:       544.25 cm**-1
  30:       552.38 cm**-1
  31:       590.64 cm**-1
  32:       591.29 cm**-1
  33:      1864.58 cm**-1
  34:      1867.02 cm**-1
  35:      1958.20 cm**-1
  36:      1958.59 cm**-1
  37:      1988.13 cm**-1
  38:      2103.24 cm**-1

IR SPECTRUM
-----------

 Mode   freq       eps      Int      T**2         TX        TY        TZ
       cm**-1   L/(mol*cm) km/mol    a.u.
----------------------------------------------------------------------------
  6:     44.28   0.000000    0.00  0.000000  (-0.000393 -0.000429 -0.000059)
  7:     47.50   0.000078    0.40  0.000516  (-0.001071 -0.015800  0.016274)
  8:     47.55   0.000080    0.40  0.000526  (-0.017511 -0.009910 -0.010993)
  9:     48.65   0.000000    0.00  0.000002  (-0.000834 -0.000091 -0.000947)
 10:     60.22   0.000000    0.00  0.000000  ( 0.000367 -0.000190 -0.000204)
 11:     64.44   0.000032    0.16  0.000155  ( 0.008260 -0.006873 -0.006302)
 12:     80.66   0.000000    0.00  0.000000  ( 0.000073  0.000173 -0.000116)
 13:     81.16   0.000049    0.25  0.000187  (-0.009691 -0.009651 -0.000342)
 14:     81.29   0.000048    0.24  0.000185  ( 0.004371 -0.005378  0.011686)
 15:    300.71   0.002990   15.11  0.003103  (-0.019562 -0.047167  0.022262)
 16:    302.90   0.002983   15.08  0.003073  ( 0.035931  0.004853  0.041937)
 17:    311.64   0.001370    6.92  0.001372  (-0.026750  0.016893  0.019265)
 18:    344.14   0.000000    0.00  0.000000  (-0.000039 -0.000049  0.000028)
 19:    371.13   0.000000    0.00  0.000000  (-0.000117 -0.000027 -0.000130)
 20:    371.97   0.000000    0.00  0.000000  ( 0.000042  0.000043 -0.000000)
 21:    399.87   0.000000    0.00  0.000000  ( 0.000082  0.000022  0.000044)
 22:    399.95   0.000000    0.00  0.000000  ( 0.000048 -0.000008 -0.000084)
 23:    424.75   0.000000    0.00  0.000000  ( 0.000077 -0.000010  0.000110)
 24:    463.50   0.002104   10.63  0.001417  (-0.025716 -0.004108 -0.027178)
 25:    464.34   0.002124   10.73  0.001427  (-0.013713 -0.030481  0.017615)
 26:    472.14   0.000001    0.00  0.000001  ( 0.000388 -0.000080  0.000595)
 27:    472.99   0.000000    0.00  0.000000  ( 0.000195  0.000039  0.000144)
 28:    474.52   0.000000    0.00  0.000000  ( 0.000222  0.000015  0.000233)
 29:    544.25   0.002498   12.62  0.001432  (-0.023269  0.022814  0.019243)
 30:    552.38   0.000000    0.00  0.000000  ( 0.000014 -0.000060  0.000145)
 31:    590.64   0.006278   31.73  0.003317  (-0.024877 -0.045218  0.025566)
 32:    591.29   0.006363   32.16  0.003358  (-0.038938 -0.002999 -0.042815)
 33:   1864.58   0.000000    0.00  0.000000  ( 0.000009 -0.000035 -0.000193)
 34:   1867.02   0.000002    0.01  0.000000  ( 0.000405  0.000125 -0.000342)
 35:   1958.20   0.499428  2523.90  0.079590  (-0.100352 -0.220211  0.145005)
 36:   1958.59   0.499207  2522.79  0.079539  ( 0.200191  0.037261  0.195125)
 37:   1988.13   0.451148  2279.91  0.070814  (-0.161741  0.162669  0.134879)
 38:   2103.24   0.000000    0.00  0.000000  (-0.000096  0.000002 -0.000154)

--------------------------
THERMOCHEMISTRY AT 298.15K
--------------------------

Temperature         ... 298.15 K
Pressure            ... 1.00 atm
Total Mass          ... 351.91 AMU

Throughout the following assumptions are being made:
  (1) The electronic state is orbitally nondegenerate
      but the spin degeneracy is treated
  (2) There are no thermally accessible electronically excited states
  (3) Hindered rotations indicated by low frequency modes are not
      treated as such but are treated as vibrations and this may
      cause some error
  (4) All equations used are the standard statistical mechanics
      equations for an ideal gas
  (5) All vibrations are strictly harmonic

freq.      44.28  E(vib)   ...       0.53
freq.      47.50  E(vib)   ...       0.53
freq.      47.55  E(vib)   ...       0.53
freq.      48.65  E(vib)   ...       0.53
freq.      60.22  E(vib)   ...       0.51
freq.      64.44  E(vib)   ...       0.51
freq.      80.66  E(vib)   ...       0.48
freq.      81.16  E(vib)   ...       0.48
freq.      81.29  E(vib)   ...       0.48
freq.     300.71  E(vib)   ...       0.26
freq.     302.90  E(vib)   ...       0.26
freq.     311.64  E(vib)   ...       0.25
freq.     344.14  E(vib)   ...       0.23
freq.     371.13  E(vib)   ...       0.21
freq.     371.97  E(vib)   ...       0.21
freq.     399.87  E(vib)   ...       0.19
freq.     399.95  E(vib)   ...       0.19
freq.     424.75  E(vib)   ...       0.18
freq.     463.50  E(vib)   ...       0.16
freq.     464.34  E(vib)   ...       0.16
freq.     472.14  E(vib)   ...       0.15
freq.     472.99  E(vib)   ...       0.15
freq.     474.52  E(vib)   ...       0.15
freq.     544.25  E(vib)   ...       0.12
freq.     552.38  E(vib)   ...       0.12
freq.     590.64  E(vib)   ...       0.10
freq.     591.29  E(vib)   ...       0.10
freq.    1864.58  E(vib)   ...       0.00
freq.    1867.02  E(vib)   ...       0.00
freq.    1958.20  E(vib)   ...       0.00
freq.    1958.59  E(vib)   ...       0.00
freq.    1988.13  E(vib)   ...       0.00
freq.    2103.24  E(vib)   ...       0.00

------------
INNER ENERGY
------------

The inner energy is: U= E(el) + E(ZPE) + E(vib) + E(rot) + E(trans)
    E(el)   - is the total energy from the electronic structure calculation
              = E(kin-el) + E(nuc-el) + E(el-el) + E(nuc-nuc)
    E(ZPE)  - the the zero temperature vibrational energy from the frequency calculation
    E(vib)  - the the finite temperature correction to E(ZPE) due to population
              of excited vibrational states
    E(rot)  - is the rotational thermal energy
    E(trans)- is the translational thermal energy

Summary of contributions to the inner energy U:
Electronic energy                ...   -746.36798322 Eh
Zero point energy                ...      0.04590191 Eh      28.80 kcal/mol
Thermal vibrational correction   ...      0.01244353 Eh       7.81 kcal/mol
Thermal rotational correction    ...      0.00141627 Eh       0.89 kcal/mol
Thermal translational correction ...      0.00141627 Eh       0.89 kcal/mol
-----------------------------------------------------------------------
Total thermal energy                   -746.30680523 Eh

Summary of corrections to the electronic energy:
(perhaps to be used in another calculation)
Total thermal correction                  0.01527608 Eh       9.59 kcal/mol
Non-thermal (ZPE) correction              0.04590191 Eh      28.80 kcal/mol
-----------------------------------------------------------------------
Total correction                          0.06117798 Eh      38.39 kcal/mol

--------
ENTHALPY
--------

The enthalpy is H = U + kB*T
                kB is Boltzmann's constant
Total free energy                 ...   -746.30680523 Eh
Thermal Enthalpy correction       ...      0.00094421 Eh       0.59 kcal/mol
-----------------------------------------------------------------------
Total Enthalpy                    ...   -746.30586102 Eh

Note: Only C1 symmetry has been detected, increase convergence thresholds
      if your molecule has a higher symmetry. Symmetry factor of 1.0 is
      used for the rotational entropy correction.

Note: Rotational entropy computed according to Herzberg
Infrared and Raman Spectra, Chapter V,1, Van Nostrand Reinhold, 1945
Point Group:  C1, Symmetry Number:   1
Rotational constants in cm-1:     0.020726     0.018342     0.018292

Vibrational entropy computed according to the QRRHO of S. Grimme
Chem.Eur.J. 2012 18 9955

-------
ENTROPY
-------

The entropy contributions are T*S = T*(S(el)+S(vib)+S(rot)+S(trans))
     S(el)   - electronic entropy
     S(vib)  - vibrational entropy
     S(rot)  - rotational entropy
     S(trans)- translational entropy
The entropies will be listed as multiplied by the temperature to get
units of energy

Electronic entropy                ...      0.00065446 Eh      0.41 kcal/mol
Vibrational entropy               ...      0.02261386 Eh     14.19 kcal/mol
Rotational entropy                ...      0.01511746 Eh      9.49 kcal/mol
Translational entropy             ...      0.02065320 Eh     12.96 kcal/mol
-----------------------------------------------------------------------
Final entropy term                ...      0.05903898 Eh     37.05 kcal/mol

In case the symmetry of your molecule has not been determined correctly
or in case you have a reason to use a different symmetry number we print
out the resulting rotational entropy values for sn=1,12 :
 --------------------------------------------------------
|  sn= 1 | S(rot)=       0.01511746 Eh      9.49 kcal/mol|
|  sn= 2 | S(rot)=       0.01446300 Eh      9.08 kcal/mol|
|  sn= 3 | S(rot)=       0.01408017 Eh      8.84 kcal/mol|
|  sn= 4 | S(rot)=       0.01380855 Eh      8.66 kcal/mol|
|  sn= 5 | S(rot)=       0.01359786 Eh      8.53 kcal/mol|
|  sn= 6 | S(rot)=       0.01342572 Eh      8.42 kcal/mol|
|  sn= 7 | S(rot)=       0.01328017 Eh      8.33 kcal/mol|
|  sn= 8 | S(rot)=       0.01315409 Eh      8.25 kcal/mol|
|  sn= 9 | S(rot)=       0.01304288 Eh      8.18 kcal/mol|
|  sn=10 | S(rot)=       0.01294340 Eh      8.12 kcal/mol|
|  sn=11 | S(rot)=       0.01285341 Eh      8.07 kcal/mol|
|  sn=12 | S(rot)=       0.01277126 Eh      8.01 kcal/mol|
 --------------------------------------------------------

-------------------
GIBBS FREE ENERGY
-------------------

The Gibbs free energy is G = H - T*S

Total enthalpy                    ...   -746.30586102 Eh
Total entropy correction          ...     -0.05903898 Eh    -37.05 kcal/mol
-----------------------------------------------------------------------
Final Gibbs free energy         ...   -746.36490000 Eh

For completeness - the Gibbs free energy minus the electronic energy
G-E(el)                           ...      0.00308322 Eh      1.93 kcal/mol

                             ****ORCA TERMINATED NORMALLY****
TOTAL RUN TIME: 0 days 1 hours 20 minutes 31 seconds 264 msec
