                         Program Version 5.0.4 -  RELEASE  -
|  1> # input to generate an atomic fitting density for Re
|  2> # this file is used internally by ORCA
|  3> #
|  4> # atomic ground state (S=6): 1s2 2s2 2p6 3s2 3p6 4s2 3d10 4p6 5s2 4d10 5p6 6s2 4f14 5d5
|  5> #
|  6> ! RHF AllowRHF def2-SVP def2/J  NoMulliken NoLoewdin NoMayer NoPrintMOs
|  7>
|  8> %output print[p_atomdensfit] 2 end
|  9>
| 10> %scf
| 11>   guess hcore
| 12>   maxiter 1000
| 13>   maxdisk 500000
| 14>   SCFMode Conventional
| 15>   lshift 0.500000
| 16>   hftyp rohf
| 17>   rohf_case sahf
| 18>   rohf_numop   2
| 19>   rohf_norb[1] 5
| 20>   rohf_nel[1]  5
| 21> end
| 22>
| 23> %basis
| 24>   NewECP 75
| 25>     N_core 60
| 26>     lmax f
| 27>     s 3
| 28>       1      14.0993051000   1038.9515723000  2
| 29>       2       7.0496525000     29.5617383000  2
| 30>       3       2.5086506000    -16.4498523000  2
| 31>     p 3
| 32>       1      10.1077169000    339.5435096000  2
| 33>       2       5.0538583000     24.9136965000  2
| 34>       3       2.5086506000    -16.4498523000  2
| 35>     d 3
| 36>       1       6.8486179000    111.6996527000  2
| 37>       2       3.4243090000     12.6243293000  2
| 38>       3       2.5086506000    -16.4498523000  2
| 39>     f 1
| 40>       1       2.5086506000     16.4498523000  2
| 41>   end
| 42>   NewGTO 75
| 43>     s 2
| 44>      1      14.7818620000     -1.3989965692
| 45>      2      12.3240750000      2.3782440179
| 46>     s 1
| 47>      1       5.5098597284      1.0000000000
| 48>     s 1
| 49>      1       0.9887410469      1.0000000000
| 50>     s 1
| 51>      1       0.4283331203      1.0000000000
| 52>     s 1
| 53>      1       0.1229680453      1.0000000000
| 54>     s 1
| 55>      1       0.0439498516      1.0000000000
| 56>     p 4
| 57>      1       7.4040050000      0.5957878713
| 58>      2       6.3502060000     -0.8317066137
| 59>      3       1.3311713455      0.5820310906
| 60>      4       0.6265960055      0.5626939292
| 61>     p 1
| 62>      1       0.2592271870      1.0000000000
| 63>     p 1
| 64>      1       0.0483000000      1.0000000000
| 65>     d 4
| 66>      1       4.0616274916     -0.0845467499
| 67>      2       1.8487943286      0.1992437577
| 68>      3       0.7870204843      0.4980214909
| 69>      4       0.3206984317      0.4770739482
| 70>     d 1
| 71>      1       0.1189274298      1.0000000000
| 72>     f 1
| 73>      1       0.4898900000      1.0000000000
| 74>   end
| 75>   NewAuxGTO 75
| 76>     S 1
| 77>      1 1310.72 1.0
| 78>     S 1
| 79>      1  655.36 1.0
| 80>     S 1
| 81>      1  327.68 1.0
| 82>     S 1
| 83>      1  163.84 1.0
| 84>     S 1
| 85>      1   81.82 1.0
| 86>     S 1
| 87>      1   40.96 1.0
| 88>     S 1
| 89>      1   20.48 1.0
| 90>     S 1
| 91>      1   10.24 1.0
| 92>     S 1
| 93>      1    5.12 1.0
| 94>     S 1
| 95>      1    2.56 1.0
| 96>     S 1
| 97>      1    1.28 1.0
| 98>     S 1
| 99>      1    0.64 1.0
|100>     S 1
|101>      1    0.32 1.0
|102>     S 1
|103>      1    0.16 1.0
|104>     S 1
|105>      1    0.08 1.0
|106>     S 1
|107>      1    0.04 1.0
|108>     S 1
|109>      1    0.02 1.0
|110>     S 1
|111>      1    0.01 1.0
|112>   end
|113> end
|114>
|115> * xyz 0 6
|116> 75  0.0 0.0 0.0
|117> *
|118>
|119>
|120>                          ****END OF INPUT****

CARTESIAN COORDINATES (ANGSTROEM)
---------------------------------
  Re     0.000000    0.000000    0.000000

 Total Charge           Charge          ....    0
 Multiplicity           Mult            ....    6
 Number of Electrons    NEL             ....   15
 Basis Dimension        Dim             ....   32

ORBITAL ENERGIES
----------------

  NO   OCC          E(Eh)            E(eV)
   0   2.0000      -4.196832      -114.2016
   1   2.0000      -2.556381       -69.5627
   2   2.0000      -2.546143       -69.2841
   3   2.0000      -2.544834       -69.2485
   4   2.0000      -0.763664       -20.7804
   5   1.0000      -0.856136       -23.2966
   6   1.0000      -0.634019       -17.2525
   7   1.0000      -0.273339        -7.4379
   8   1.0000      -0.258947        -7.0463
   9   1.0000      -0.257236        -6.9997
  10   0.0000      -0.332325        -9.0430
  11   0.0000      -0.329943        -8.9782
  12   0.0000      -0.310320        -8.4442
  13   0.0000       0.062943         1.7128
  14   0.0000       0.210850         5.7375

FINAL SINGLE POINT ENERGY       -76.749139912739

DIPOLE MOMENT
-------------
                                X             Y             Z
Electronic contribution:     -0.00000       0.00000      -0.00000
Nuclear contribution   :      0.00000       0.00000       0.00000
                        -----------------------------------------
Total Dipole Moment    :     -0.00000       0.00000      -0.00000
                        -----------------------------------------
Magnitude (a.u.)       :      0.00000
Magnitude (Debye)      :      0.00000

Rotational constants in cm-1:     0.000000     0.000000     0.000000
Rotational constants in MHz :     0.000000     0.000000     0.000000

                             ****ORCA TERMINATED NORMALLY****
TOTAL RUN TIME: 0 days 0 hours 0 minutes 0 seconds 754 msec
