                         Program Version 5.0.4 -  RELEASE  -
|  1> # input to generate an atomic fitting density for Ta
|  2> # this file is used internally by ORCA
|  3> #
|  4> # atomic ground state (S=4): 1s2 2s2 2p6 3s2 3p6 4s2 3d10 4p6 5s2 4d10 5p6 6s2 4f14 5d3
|  5> #
|  6> ! RHF AllowRHF def2-SVP def2/J  NoMulliken NoLoewdin NoMayer NoPrintMOs
|  7>
|  8> %output print[p_atomdensfit] 2 end
|  9>
| 10> %scf
| 11>   guess hcore
| 12>   maxiter 1000
| 13>   maxdisk 500000
| 14>   SCFMode Conventional
| 15>   lshift 0.200000
| 16>   hftyp rohf
| 17>   rohf_case sahf
| 18>   rohf_numop   2
| 19>   rohf_norb[1] 5
| 20>   rohf_nel[1]  3
| 21> end
| 22>
| 23> %basis
| 24>   NewECP 73
| 25>     N_core 60
| 26>     lmax f
| 27>     s 3
| 28>       1      14.5464077000   1345.8806470000  2
| 29>       2       7.2732038000     36.7668062000  2
| 30>       3       2.0178811000    -12.0179609000  2
| 31>     p 3
| 32>       1       9.9355653000    378.4253015000  2
| 33>       2       4.9677824000     22.2930909000  2
| 34>       3       2.0178811000    -12.0179609000  2
| 35>     d 3
| 36>       1       6.3473769000    104.8839557000  2
| 37>       2       3.1736885000      8.7558481000  2
| 38>       3       2.0178811000    -12.0179609000  2
| 39>     f 1
| 40>       1       2.0178811000     12.0179609000  2
| 41>   end
| 42>   NewGTO 73
| 43>     s 2
| 44>      1      14.4000000000      1.4764043846
| 45>      2      12.0000000000     -2.4536684721
| 46>     s 1
| 47>      1       5.0701477302      1.0000000000
| 48>     s 1
| 49>      1       0.8603335649      1.0000000000
| 50>     s 1
| 51>      1       0.3715893889      1.0000000000
| 52>     s 1
| 53>      1       0.1074533625      1.0000000000
| 54>     s 1
| 55>      1       0.0391427766      1.0000000000
| 56>     p 4
| 57>      1       7.4188720000      0.2965388357
| 58>      2       5.6984100000     -0.5162436146
| 59>      3       1.1777211960      0.5595074018
| 60>      4       0.5447853355      0.5748187935
| 61>     p 1
| 62>      1       0.2230927012      1.0000000000
| 63>     p 1
| 64>      1       0.0431000000      1.0000000000
| 65>     d 4
| 66>      1       3.9738796278     -0.0588169688
| 67>      2       1.4528884813      0.2067345355
| 68>      3       0.6104290854      0.4785521518
| 69>      4       0.2421627651      0.4845470672
| 70>     d 1
| 71>      1       0.0879093183      1.0000000000
| 72>     f 1
| 73>      1       0.3738600000      1.0000000000
| 74>   end
| 75>   NewAuxGTO 73
| 76>     S 1
| 77>      1 1310.72 1.0
| 78>     S 1
| 79>      1  655.36 1.0
| 80>     S 1
| 81>      1  327.68 1.0
| 82>     S 1
| 83>      1  163.84 1.0
| 84>     S 1
| 85>      1   81.82 1.0
| 86>     S 1
| 87>      1   40.96 1.0
| 88>     S 1
| 89>      1   20.48 1.0
| 90>     S 1
| 91>      1   10.24 1.0
| 92>     S 1
| 93>      1    5.12 1.0
| 94>     S 1
| 95>      1    2.56 1.0
| 96>     S 1
| 97>      1    1.28 1.0
| 98>     S 1
| 99>      1    0.64 1.0
|100>     S 1
|101>      1    0.32 1.0
|102>     S 1
|103>      1    0.16 1.0
|104>     S 1
|105>      1    0.08 1.0
|106>     S 1
|107>      1    0.04 1.0
|108>     S 1
|109>      1    0.02 1.0
|110>     S 1
|111>      1    0.01 1.0
|112>   end
|113> end
|114>
|115> * xyz 0 4
|116> 73  0.0 0.0 0.0
|117> *
|118>
|119>
|120>                          ****END OF INPUT****

CARTESIAN COORDINATES (ANGSTROEM)
---------------------------------
  Ta     0.000000    0.000000    0.000000

 Total Charge           Charge          ....    0
 Multiplicity           Mult            ....    4
 Number of Electrons    NEL             ....   13
 Basis Dimension        Dim             ....   32

ORBITAL ENERGIES
----------------

  NO   OCC          E(Eh)            E(eV)
   0   2.0000      -3.319575       -90.3302
   1   2.0000      -1.901041       -51.7299
   2   2.0000      -1.886497       -51.3342
   3   2.0000      -1.886482       -51.3338
   4   2.0000      -0.409481       -11.1425
   5   0.6000      -0.415871       -11.3164
   6   0.6000      -0.386124       -10.5070
   7   0.6000      -0.189150        -5.1470
   8   0.6000      -0.175871        -4.7857
   9   0.6000      -0.175854        -4.7852
  10   0.0000      -0.184053        -5.0083
  11   0.0000      -0.183989        -5.0066
  12   0.0000      -0.154945        -4.2163
  13   0.0000       0.029676         0.8075
  14   0.0000       0.144243         3.9251

FINAL SINGLE POINT ENERGY       -55.986345183044

DIPOLE MOMENT
-------------
                                X             Y             Z
Electronic contribution:      0.00000       0.00000       0.00000
Nuclear contribution   :      0.00000       0.00000       0.00000
                        -----------------------------------------
Total Dipole Moment    :      0.00000       0.00000       0.00000
                        -----------------------------------------
Magnitude (a.u.)       :      0.00000
Magnitude (Debye)      :      0.00000

Rotational constants in cm-1:     0.000000     0.000000     0.000000
Rotational constants in MHz :     0.000000     0.000000     0.000000

                             ****ORCA TERMINATED NORMALLY****
TOTAL RUN TIME: 0 days 0 hours 0 minutes 1 seconds 130 msec
